274
Properties=species:S:1:pos:R:3:forces:R:3 Layer=T energy=-1037.4672163777832 free_energy=-1037.4672163777832 stress="-3.6608292756936003e-10 -3.066249151018484e-09 2.8504650186355624e-09 -3.066249151018484e-09 -1.9088702314659488e-09 -6.637265032790196e-10 2.8504650186355624e-09 -6.637265032790196e-10 1.4350127934862044e-09" pbc="F F F"
Li       2.69656607       3.08699201       5.82752345       0.02770906      -0.00506757       0.00999036
Li      -6.24204693      10.36660192      10.47976779      -0.06906703       0.00739076      -0.00892940
Li       1.92454998       3.15244000      10.09792754       0.01017203      -0.00957138       0.01132373
Li       3.71622131       5.76493378       7.57520198      -0.00286877       0.00223060      -0.00258980
Li       0.42355888       2.34418417       8.10705893       0.02294308      -0.02220694      -0.00905442
Li       5.68620505       0.80372401       7.09517138       0.00656873       0.00210129       0.00956957
Li      -1.85054363       8.53160364       5.10200210      -0.01902856       0.02856646       0.03828982
Li      -1.70275759       1.56227189       9.27405833       0.00535879      -0.00809770       0.00159561
Li      -0.04580459       4.26910683       6.26060474       0.00641318      -0.01569674       0.02404169
Li      -0.78858714      11.99832226       8.13947534       0.02033474       0.03136152       0.00135614
Li       6.05927365       1.20303547      10.14400744       0.00302007      -0.00166588       0.00437667
Li      -1.13709718       3.82768062      11.79602704      -0.00766648      -0.00302293       0.00254893
Li       0.31577053       6.38808730      13.28421562      -0.00951514       0.01242016       0.00972874
Li       3.98670952       3.08758025       8.26806175      -0.01949300       0.02673209       0.00212238
Li      -2.35252589      12.73796201       5.91697859       0.01661168      -0.01677500       0.01042319
Li       5.98825925       4.28415680      10.26146962      -0.00852886      -0.00075665      -0.00882367
Li       8.02459080       6.96497783       6.29957913       0.00781385      -0.02573625       0.00335635
Li       1.94475873      12.36787332       7.03796298       0.00677376       0.02138451       0.00070898
Li       9.24639482       4.19104596      10.57314049       0.00828699      -0.00831573      -0.02138069
Li       9.48461598       7.27661825       8.58670891       0.00144805       0.01592842       0.01650607
Li       8.26274524       2.72023803       8.28187255      -0.01009745      -0.00208455       0.01330272
Li      10.82252652       1.68875178       6.99697051       0.00521179      -0.02098394       0.02047413
Li       5.51698281      13.23219313       4.60585886       0.01860726       0.00824399       0.00229866
Li       6.99870573       2.08468248       4.99730504      -0.00331156       0.02606298      -0.02413653
Li       4.67432467       5.00004773       4.63709489       0.02193908       0.00341108       0.00355348
Li       5.79857112      14.01885683       7.80321483      -0.00450870       0.02476331      -0.00356903
Li      13.12287999       0.72194348       8.61094852       0.00686121      -0.00843302       0.00062956
Li       6.49776774       4.62625758       6.69509088      -0.03080989       0.00623284      -0.00894521
Li      11.70466894       6.30567426      10.25989600      -0.00513602      -0.00278726       0.00095710
Li       9.91977983      -0.46232355       5.67581232      -0.01108856      -0.01671920      -0.01411183
Li       0.85518690      10.22478513       5.29255561       0.02536290      -0.05404665      -0.00816912
Li      10.57062780       5.16342817       7.52658553      -0.00175287      -0.01556737      -0.00152969
Li      -0.08218406       7.76116138       2.14199671       0.01175678       0.01023866       0.06095425
Li      -2.45848082       1.91788199       5.60264492      -0.02423160      -0.02059615      -0.00902989
Li      -3.27596333       3.98265321       9.14440032      -0.00301214       0.00673513      -0.00560937
Li      -0.08560152       9.16799421       7.77965788      -0.00808086       0.04556551       0.02695835
Li      -2.97650941      10.96663424       7.92472894       0.03046084      -0.01959440      -0.08020318
Li       0.60720389       6.35665958       7.81388455      -0.01129469       0.00820129      -0.00039056
Li       3.15261680       7.50402308       2.54133524      -0.00917677       0.00483711       0.01281636
Li      -3.65494057       9.91944537      10.76618742      -0.01244665      -0.04288941      -0.03245960
Li      -1.74134278       5.33612133       3.81554662      -0.01667484      -0.02386552      -0.00838496
Li      -1.33225551       7.38011568      10.19617623       0.04957063       0.00866840       0.05641897
Li       1.49132667      10.60116560       9.38580149      -0.00040289      -0.03542476       0.01537570
Li      -5.39432509       7.54991639       8.46700855       0.00679752       0.01343321      -0.00187665
Li       0.06303548      12.08866395      11.00543698       0.00443296      -0.02343550       0.01670596
Li      -2.46850682       5.43771064       7.03475486       0.03441097      -0.01097138      -0.01668246
Li       1.55710416       4.51315147       2.81474863       0.00617151       0.02376810       0.00583864
Li      -2.92861439       8.59869263       8.37083396      -0.00290007       0.01230766       0.09196052
Li       5.28288249      10.70111816       2.26764535       0.02035700       0.01218103       0.00905644
Li       1.97297349       5.86761411      10.04819110       0.00585693      -0.02912573      -0.00572143
Li       3.04896208       8.31071857      11.41442947       0.01510312      -0.02866966       0.01601611
Li       7.38323774      11.50111511       6.50234275      -0.00430203      -0.02762339      -0.03545631
Li       4.40115797      11.63189896       8.02495588      -0.01574333       0.01425717      -0.01039959
Li       8.47159451       9.91792787       4.56856386      -0.00678998       0.01602790      -0.01339603
Li       5.97370912       8.17458350       4.00097843      -0.01600089      -0.01112775      -0.03002204
Li       3.33558059       8.42780212       8.80269094       0.00360970      -0.01748536       0.01601401
Li       1.25031641       6.80715188       4.78315391       0.01812645      -0.03745419       0.00602165
Li       6.16156173       6.78092854       8.30683029      -0.01360554       0.02155653       0.00032024
Li       8.00088948       8.87480113      11.65209315       0.00289328       0.01393563       0.00901059
Li       3.83350685      11.32311551       5.36890804       0.02620255      -0.03343398       0.02604184
Li       4.91249559      10.51359028      11.23217256      -0.01385463      -0.00953780      -0.00767278
Li       6.20448793       9.16675947       6.65450944       0.01838926      -0.00195251      -0.00845755
Li       3.58239440       8.38487471       5.68718644       0.01118156       0.00933996       0.00043878
Li       7.44185814       9.77934191       9.19340549       0.00989263       0.00173455       0.00677813
Li       3.41750741       1.95392588      19.43591838      -0.00349263      -0.01180674      -0.00289797
Li      -1.74434178       4.91678206      14.70532074      -0.02048256      -0.00586413      -0.00029410
Li       4.98100349      -1.12124289      14.13071094      -0.00120029       0.00539246      -0.03291746
Li      -0.96763288       2.90131834      22.06665452       0.00924119       0.00252503       0.01320241
Li       5.45892859      -0.71488662      17.60725251      -0.01492037       0.00682794      -0.00390594
Li      -1.45070353       0.82574581      12.07838169      -0.01499009       0.00747835      -0.00927724
Li       2.30460253       1.26125582      21.87157788      -0.01740161      -0.00536187      -0.00153207
Li      -2.99853172       4.42301688      19.44370048      -0.00502087       0.02447938      -0.01066003
Li       1.78025121       4.32108312      14.23881210       0.00556641      -0.01319218       0.00598624
Li       3.94066178       1.42145642      15.96003593      -0.00520741      -0.00989719       0.00015760
Li       3.43283427       5.76483478      21.36439997      -0.00396238       0.00204464       0.00198319
Li       0.93839413       2.35044494      12.30925888       0.00854515      -0.03240759       0.01263391
Li       5.06993190       4.07166129      19.70265487       0.00475388       0.00189611      -0.01750667
Li       4.02144211       1.36247708      12.71144255       0.02000243      -0.01104126      -0.01838433
Li      -0.29483000       3.34262705      16.94933039      -0.00416282      -0.00512629      -0.00372245
Li       1.79976736      -0.45295589      17.41730312       0.02125143      -0.00975530      -0.00135867
Li       1.70931180       3.85449097      22.78083341      -0.00382999      -0.00712979       0.00114146
Li       3.54682147       4.61977976      11.83133945       0.00732566      -0.03057840      -0.01645444
P        0.11226746       1.13062330      14.73017932       0.00185808       0.00686557       0.00452553
P       -0.13884220       5.44511777      20.17497747       0.01750404       0.00458352      -0.02026699
P        4.50019875       6.39071132      10.04363606       0.00845984      -0.00353007      -0.00322041
S       13.24536454       0.33434999      11.00754056       0.02894558       0.01127422      -0.01370722
S       -1.77087114       6.47246139      19.42375846      -0.03089199      -0.02528675       0.00491595
S        1.86591737       4.24287311       7.76843826       0.00353720       0.00044449      -0.00921849
S        2.04127986       1.92352975      14.34800571      -0.00522338      -0.01498829       0.01632108
S        1.65248791       6.15203061      19.48190968       0.01295821      -0.00821471       0.00691719
S        5.00257403       2.96547364       6.02115395       0.02918421      -0.03497841      -0.02045304
S        6.22187667      11.80229009      12.81642208       0.03301197       0.00088893       0.00467831
S       -0.12758082       3.43836746      19.45968022      -0.00074260       0.01969500       0.00462037
S        4.27273693       2.63536617      10.57891226      -0.00317459      -0.01911769      -0.00311063
S       -0.14681731       0.93980943      16.71741752      -0.00800038       0.00122249      -0.02792835
S       -0.26403457       5.39783295      22.21576916       0.00099196      -0.01213026       0.01327877
S        1.16138259       4.61312169      11.83150550       0.03119308       0.01855152       0.00632487
S        3.58845208       3.32347726      21.44495321       0.02403295       0.01599768       0.00069691
S        0.49969189       1.15388988      10.22063418      -0.01748900      -0.01078071       0.03490553
S        0.32440731       5.34321444      15.82287574       0.00726672      -0.00650636       0.01024731
Cl       0.64516243       1.92130413      23.36733487      -0.00212089      -0.01242361      -0.00833455
Cl       4.08979085       3.39798558      17.49712754       0.00135886      -0.00182812       0.00594279
Cl      -2.99814192       2.49463326      10.92773363       0.03358986      -0.00823668      -0.05469969
Li      10.61598434       2.68401998      20.19325654       0.00284895       0.00069799       0.01161635
Li       5.92401102       4.13666667      15.86404897       0.00296345      -0.00190268       0.00958775
Li      11.00599142       1.63545755      10.71936616      -0.01271649       0.01784522      -0.00412908
Li       5.58772644       1.91408325      21.69750530       0.01745416       0.00046708       0.01896920
Li      11.98376835       1.43862458      17.72453001      -0.00446423       0.02910730       0.02075395
Li       9.25963060       0.41554046      12.39987574      -0.01365444       0.00129945       0.00142980
Li       9.12482892       0.89827858      22.04700946      -0.00043650      -0.00418568      -0.00219507
Li       8.36227528       3.82651387      18.15319249       0.01004927       0.04500113      -0.01229780
Li       9.20457815       6.56563894      13.17059270       0.00970353       0.01475828      -0.01022707
Li      11.20605450       0.33940146      14.46924617       0.01397564      -0.00779678       0.01399565
Li      10.88884261       4.94064760      21.85207507      -0.01267772      -0.02831895       0.01575085
Li       7.59759952       2.62481882      12.63991238      -0.01208567       0.01249503       0.01473186
Li      12.56143221       2.80413790      21.91688846      -0.00445296       0.01080172      -0.00598845
Li       9.47366670       0.08243699       8.67992061       0.01247242      -0.01457587      -0.00784070
Li       9.99718118       5.26778814      16.33884801      -0.02264242      -0.00819411      -0.00224792
Li       9.77507766      -0.40220254      17.42252671       0.02865171      -0.00382307      -0.01404619
Li       8.16104168       3.12398248      23.23996282       0.01395527       0.00518654      -0.00938077
Li      13.72651082       2.64838877      10.76417400      -0.01079118      -0.01288973       0.01819422
P        7.49948477       0.70410675      14.74043527       0.01554976       0.02619470       0.00023759
P        7.35362078       5.33566598      21.13053114       0.01371008      -0.00758454      -0.02629800
P       11.91458230       3.27855745       8.58009203      -0.02807618       0.01250860      -0.00262953
S        5.87388021       1.98810504      14.31124724      -0.01995786       0.02842749      -0.01693249
S        5.75519781       6.39450698      20.22274331      -0.02055135       0.02008919      -0.00989169
S        8.14249568       5.21420083       8.26155312       0.00372979       0.01830650       0.00001996
S        9.16279221       1.84486958      14.30632145      -0.00136143      -0.00154896      -0.00038866
S        9.11355862       6.29241511      20.67228402      -0.01068460       0.01140937      -0.00248118
S       -1.74401393       3.11891442       7.43707053      -0.04300151      -0.00146294       0.03107952
S        0.54182365      12.11896466      15.15322325      -0.00614462       0.00725261       0.00514721
S        7.34463576       3.43524190      20.29788605      -0.01980733      -0.00776849       0.03040011
S        8.24612933       0.96445217       6.62091445      -0.02508348       0.00061999       0.00065378
S        7.50523121       0.27127055      16.71181805       0.02334276      -0.01793781       0.01049155
S        7.01651880       5.27071716      23.12142177       0.00065078      -0.01467024       0.00106592
S       11.68991583       3.94323405      10.65910831      -0.02327231       0.00312744       0.01564297
S       10.35107708       2.79600187      22.60168494      -0.00306121       0.04389357      -0.00279009
S        8.44340416       1.67094191      10.47466549      -0.00154374       0.01834100      -0.00945204
S        7.63873580       5.60036524      16.78725643       0.02838636      -0.00589245      -0.00585837
Cl       7.10975141       1.07878737      23.20890978      -0.02474485       0.00750515      -0.01100599
Cl      10.60593346       3.44986591      17.75817900       0.01575108      -0.00773170      -0.00925069
Cl       7.51709648       4.91724102      12.14615351      -0.01000738      -0.01385123      -0.00049056
Li      -1.39054467       9.83672399      19.05066911      -0.00144898      -0.01194748       0.02508344
Li      -4.29617525      10.78134573      13.49394546      -0.01168284      -0.02466270       0.01821898
Li       0.24435772       9.27385882      11.51198797       0.00986013      -0.00132131       0.02398861
Li      -4.93346595       9.62805018      21.78462671       0.03636662      -0.02334527       0.03326041
Li       2.30090554       5.12472877      17.29095957      -0.00110415      -0.01129117       0.00733275
Li      -1.21169449      13.05067076      14.08186526       0.00392930       0.01717183       0.01305032
Li      -1.40804468       7.67067018      21.77889998       0.00128778       0.01898608       0.00553690
Li      -3.21895793      13.22610272      17.05799535      -0.01414257      -0.01262345      -0.02927482
Li       2.39804418      13.38304059      15.06983673      -0.00575466       0.01834025      -0.03142108
Li       1.21207342       7.56260074      15.90358275       0.02428552       0.01554171      -0.02100188
Li      -0.02559388      11.90943384      20.51284417      -0.00043882       0.01013129      -0.01865256
Li      -3.73181977      13.37962041      12.91378640       0.01235314      -0.01040909      -0.00203584
Li       1.20254191       8.60568189      19.29570448       0.00113898       0.00025549       0.02216638
Li      -3.99591355       6.46326808      11.26633209       0.00068749       0.02094567       0.02565111
Li      -1.42570078      11.10780836      16.00787574      -0.00481641      -0.01226040      -0.02138985
Li      -1.21274744       6.89968291      16.98043314       0.00886598      -0.00545144       0.01792047
Li      -2.18296534      10.30559466      21.81726022      -0.00441642      -0.01668470       0.01407694
Li       1.55229435      10.43165746      13.96331014      -0.00017270      -0.01557323      -0.00841857
P       -2.58887763       7.65180712      13.68473975       0.02605400      -0.02643987      -0.00013510
P       -3.04251481      12.21307226      19.72003654      -0.00570913      -0.00609575      -0.03186826
P       -1.32378081      10.15934249       9.84313215      -0.02948058       0.01327543       0.00671179
S        8.61482060       8.90431572      14.15881380       0.03762577      -0.00420797      -0.01193380
S        1.78069290       0.18239497      19.72423151       0.00406521       0.00003235       0.01421045
S       -1.28065292      10.53249207       6.09436322      -0.00369842       0.03131567      -0.01682905
S       -0.96418546       8.86898129      13.75716408      -0.05790310      -0.06023904      -0.00526153
S        5.19516939       0.26999370      19.79245857      -0.02068946      -0.01524992       0.00039856
S        2.65706861      10.06312171       7.01732811       0.00461328       0.00385887      -0.03697055
S       11.13663296       6.45084100      14.55313488       0.01813225      -0.00643317      -0.00597029
S       -3.67605303      10.23243328      19.72244930       0.02575956      -0.01050806      -0.01392988
S       -0.76072240       6.50271421       5.74489256      -0.01460671      -0.00938430      -0.02248789
S       -3.15719094       6.87204446      15.46591003       0.01181268      -0.00413026      -0.05037418
S       -2.23441494      12.68436761      21.55087579       0.03427169       0.00605872       0.04188913
S        2.40293473      10.82620817      11.61219744      -0.00358536      -0.02415588       0.01800449
S       -0.08271808       9.53330741      21.02288380      -0.02142463      -0.02142533      -0.04245714
S       -3.39133447       6.34654575       8.96310119       0.00498303      -0.00521518      -0.00760091
S       -3.24042776      12.30856347      14.88974002       0.01445873      -0.00254102       0.08964531
Cl      -3.18107383       8.53858599      22.95714101      -0.02334210       0.03163979      -0.05046771
Cl       0.00439534       9.02551352      17.24356004      -0.00317637      -0.00199016      -0.00702645
Cl      -1.42729380      13.87374609      11.82458577      -0.01786121       0.01706042      -0.00125460
Li       6.12928820       9.20260980      20.11229960       0.00410594       0.00914026       0.01526935
Li       1.73021088      11.43493376      17.03978025      -0.02394681      -0.01072620       0.00980941
Li       7.64976079       6.51395755      10.37822640      -0.00471112       0.00900771      -0.01031827
Li       2.01499760       9.29697795      21.94399057       0.01284841      -0.00447420       0.01517783
Li       8.36389022       7.42683227      18.65102805       0.01021976      -0.00588256       0.00809351
Li       5.41811183      13.39362647      14.38575544       0.01759434      -0.01634410      -0.03167898
Li       5.72798938       7.28450978      22.71840896       0.00825581       0.01193760      -0.00658767
Li       4.28123762      12.87210173      17.98019767       0.01600873       0.00271363      -0.01097567
Li       7.41528972      12.24834005      10.86496494       0.01656624       0.00713692      -0.00150582
Li       7.41955655       7.67500916      15.75984311      -0.01778798      -0.00813012      -0.00523940
Li       7.56277001      11.12437389      21.20319061      -0.00437621      -0.00679408      -0.00107656
Li       5.85115397      10.48201929      14.78706188       0.03570238      -0.00683192       0.00971743
Li       8.65584005       8.59740025      21.53980769      -0.01869779      -0.02248667      -0.00277686
Li       5.65806613       6.54622191      12.35689204       0.00260516       0.00876810       0.02153384
Li       4.38966886       9.76477609      17.32952998      -0.03325652      -0.00470475      -0.00134066
Li       5.77143527       6.67539945      17.76699611      -0.00714331       0.00193201       0.01197930
Li       4.51653576       9.73871641      22.94234600       0.01296566      -0.00875499      -0.00166352
Li      10.53393455       9.07686539      12.45458588      -0.01813103       0.01688244      -0.00479029
P        3.93286670       7.11878179      14.69260797      -0.00687417       0.01664223      -0.07649892
P        3.60257217      11.46126647      20.34316537       0.08577600       0.00563087       0.00591808
P        5.63263667       8.24668556      10.25973520       0.01278779       0.02439583      -0.02084023
S        2.29667570       7.93134799      13.74557375       0.00987713      -0.01220525       0.03377118
S        9.65826198       0.23806297      19.75897589       0.01341580       0.01062539       0.00938918
S        6.04180733      10.63925334       4.56433525      -0.00209317       0.02401521      -0.00356413
S        5.61465466       8.12608018      14.15151571      -0.00717721       0.03405020       0.01055831
S       12.80444981       1.27528010      20.04950009      -0.00499711       0.01069808       0.00345322
S       -5.01017422       9.83093999       8.51932773      -0.00560790      -0.00085633       0.00150958
S        4.22293613       5.15414677      14.15523828      -0.01731176      -0.01513323       0.00963220
S        3.55786435       9.47476605      19.66445634      -0.03988870      -0.02904712      -0.01282886
S        5.47049306       6.89278424       5.96509668       0.01274825      -0.03304091      -0.00619331
S        3.55947743       7.25996657      16.70717788       0.00914158       0.02353888       0.04920512
S        3.07923588      11.51471686      22.31535086      -0.02555367       0.00920178      -0.01440547
S        9.37548651      10.81163940      10.85889792       0.00569707       0.02823510      -0.02255197
S        6.68194761       9.38121314      22.47284135      -0.00207042       0.00203721       0.01344040
S        1.05172004       7.89519622       9.57643556      -0.06107778       0.03290329      -0.03921780
S        4.13010941      11.76500719      15.86182396      -0.02927082      -0.01463293       0.04160246
Cl       3.35029555       7.58681330      22.99011718      -0.00197361      -0.00833852      -0.00166509
Cl       6.57297961       8.96908292      17.57400988      -0.00371617      -0.01293869      -0.00877188
Cl       3.38595289      14.20379468      13.09424368       0.00909861       0.02234299       0.02435007
S       -2.83936495      13.33301919       8.19772679       0.02124510       0.01212548       0.00612100
S        3.94259640      13.57031391       6.35814358      -0.00148471      -0.03138323       0.01347455
S       11.82746355       7.16680927       8.02930786      -0.03255389      -0.01657497      -0.03409044
S        8.70316887       9.27067801       6.98169362       0.00547010      -0.01577466       0.03242741
S       -1.28201739       2.42136493      13.90855639      -0.01141641       0.02468340      -0.00190041
S       -1.99024963       6.03561838      12.42188440      -0.03680171       0.06111386       0.04509395
S        5.47666434      -0.82854604       8.98967637      -0.00304298       0.01103658       0.00864904
S       -1.94405698       2.42218692      19.96939927      -0.00317992      -0.02475477       0.00573727
S        3.69763996      -0.92946310      16.13338618      -0.01353160      -0.00573223       0.01407014
S        3.50154935      -0.69808884      20.50690536       0.00937950       0.02276963      -0.00571181
S        3.41170785      -0.89126486      12.22603410      -0.00416709      -0.01884284      -0.00186958
S       -0.16555109      -0.67045580      13.76362098       0.00724415      -0.01343015       0.00896611
S       11.56075138      -0.55717839       7.42312675      -0.02750023       0.02643176       0.01464054
S       13.98705518       3.05412901       8.29841110       0.02326045       0.01629669      -0.02002977
S       11.81602563      -0.40221091      16.48203669      -0.03201095      -0.01745841      -0.00965031
S       11.52487467      -0.34098782      12.08084153      -0.02454696      -0.00763836       0.04088046
S       11.54596681      -0.29218295      20.37754037      -0.01056271      -0.00485883      -0.00638632
S        9.76362877       7.34435029      10.96139573      -0.01596655      -0.01087898       0.04264653
S       13.31611010       5.04833152      21.87248350      -0.00684420      -0.00001179      -0.01035494
S       12.48465433       4.58962294      20.07065204       0.01831145       0.00484475      -0.00096935
S        8.90463868      -2.21660395       9.31845132       0.02484298       0.00767110      -0.00042116
S        7.39423158      -0.90909475      13.44563153       0.02954598      -0.04584601      -0.00321965
S       -4.27336921       8.40552271      12.74971947      -0.00124498       0.03349143      -0.02721230
S       -4.85905427      11.97406686      11.45663708       0.00048691       0.04001266      -0.01689611
S       -7.01872618      10.33940578      22.16716970      -0.02284326       0.00873594       0.00316860
S        1.10184550      13.31648364       9.06190052       0.01156750      -0.01079291      -0.03103781
S       -1.40877423      12.24121548      18.37391723      -0.02940695       0.00307914       0.00053497
S        2.23169292      12.57158983      19.25669503      -0.05909832       0.00065787       0.00372626
S       -4.48218558      13.46691683      19.07812838       0.00072280       0.01871509      -0.01585306
S       10.68054758       8.44020285      14.83955551      -0.01606165       0.00189241       0.00293142
S        6.66862065      12.01661207       8.63325349       0.00775533       0.02789376      -0.00215133
S        5.49039488      12.15702163      19.91314033       0.01266462       0.02458032      -0.00525653
S        9.92893488      10.47365485      20.89614143       0.01594577       0.01263287       0.00284487
S        8.69298544       9.87079411      19.37505141      -0.00653244       0.00267808      -0.01249200
Li       1.14755902      -0.59630297      11.71629007      -0.00622087       0.01449764      -0.00460759
Li       9.17246860      11.62193029       8.65787058       0.01803287       0.00266119       0.02248858
Li      -4.89546563      12.30433164       9.04945373      -0.00133250       0.00527184       0.00652317
Li      13.50568566       5.47349383       7.78236662      -0.00062165      -0.00497647       0.00124763
Li       3.23320262       0.43456014      10.15057241      -0.00262846       0.01887854      -0.00674006
Li      -1.04915424      14.44618566       9.40650459       0.00094059       0.00508829      -0.01986959
Li       7.47332095      -1.04697898       7.75349838       0.00108017       0.01236598      -0.01763741
Li       2.53266734      14.78824059       7.85347924       0.02486074      -0.00195954       0.01713870
Li      10.45252426      -2.63338953       7.66156036       0.01159220       0.02023003      -0.00825563
Li       3.84034954      11.82942373      13.28689141      -0.00448084      -0.00815808      -0.00690149
Li      10.80877562       9.13876812       9.69916955       0.01222394      -0.00440917      -0.00044545
Li       4.37273839      -2.08396110      10.60334306       0.00783313       0.00335945      -0.00362785
Li       2.26741172      -0.94637889      14.29823239      -0.00653243       0.00004160      -0.00276364
Li      11.01112496       8.67415694       6.50809660      -0.01838983       0.00853960      -0.01907533
Li       7.57337830      -0.81152699      10.75193910      -0.00074623       0.00203600      -0.01956669
Li      11.31087075      -1.49283371      10.00691930      -0.01268717      -0.01192421      -0.01213309
Li       6.77014133      -3.06858865       9.22913071      -0.01801716      -0.01596793      -0.00078605
Li      -2.69556864      12.39350957      10.43142400       0.00602930      -0.00496127       0.01816394
Li       8.46063796      11.10463109      13.12666730      -0.02706943       0.03377309      -0.01499615
Li       2.58607420      13.23519893      11.06221195       0.02614009       0.00262758      -0.02832278
