279
Properties=species:S:1:pos:R:3:momenta:R:3 LayerForceGeomOptConstraint=T E_ref=-1069.7402694476752 step=2900 pbc="F F F"
Li       3.78912541      13.13213423      18.56984437      -0.34240827       0.94476429      -0.22526514
Li       6.89442399      11.53412078       8.13749029      -0.56971829      -0.02393434      -0.52339805
Li       2.32157906       1.02482420      12.15555142      -0.74802495       0.48383631       0.89844859
Li       4.52352071       6.31909926      23.26445028       0.30746514       0.28933787      -0.13757031
Li       1.92920777       7.50316995       8.89510259      -0.16027091       0.46727962      -0.18087770
Li       7.17051844       2.22264272       9.79751892      -0.06996043       0.28959063      -0.96011532
Li      11.98166085       0.62242692       7.95843004      -0.11979934       0.30622085      -1.15359804
Li       2.06540095       4.95431979      10.49514190      -0.43203663      -0.31226076       0.21583076
Li      -2.31216952       2.25366503       5.29950203       0.35316405       0.46560629       0.61644129
Li       6.51587714       0.07246461      11.67068177      -0.44298585      -0.06842297       0.24884794
Li       6.54404995      12.18115751      10.99334675       0.30398051      -0.33082783      -0.02336753
Li       0.34549099       5.72950735       3.99918488       0.74747669      -0.04047723       0.42813528
Li       4.55772313       1.77847360       6.47896063      -0.45061697       0.25425349       0.59776729
Li       2.71435673       0.71357473       9.51913737       0.70473326      -0.41024619       0.14766656
Li      -1.52861313      10.85901337       8.28059987      -0.91316585       0.42318124       0.03391525
Li       0.22022309       1.67038818       6.01834404      -0.32106256      -0.35902908      -0.16490410
Li      -5.78513524      12.97349093      21.46803156      -0.12612609       0.15665051      -0.59789484
Li      -0.62143984      14.21187598       9.92402138       0.43832053      -0.08417646       0.08590992
Li       8.22762341      -0.75600817      13.29289219       0.32436180      -0.24361351      -0.53654548
Li      11.32414586       6.74855904      21.85937086      -1.16188000       0.55882626      -0.38457950
Li      10.39396001       5.32269842       9.07572594       0.46443299      -0.22202005      -0.51140384
Li      -1.50087800       3.28269798       7.79366599      -0.11072909      -0.16971141       0.23827936
Li      -5.30242034      10.93217844       7.91892649      -0.12326097       0.26912763       0.32652437
Li      11.19607448       5.73462302       6.40813940      -0.04052413      -0.22056396      -0.07913004
Li       4.38914761       2.76599087       8.83636731       0.08566278       0.73858855      -0.90543214
Li      11.19537928       0.82417371      11.91669035       0.34201426      -1.72896629      -0.10876557
Li      -7.56519947      11.39639262      12.81025324      -0.49746138       0.15988973      -0.40322628
Li       4.35631500       5.28316263       7.84084575      -0.44130052       0.04253871      -0.22163343
Li      12.49177432       2.74973908      10.04722922       0.13346159      -0.23241178      -0.08274289
Li      10.10260209       1.78881735      10.19558439      -0.34917014      -0.20867750      -0.37259176
Li      -2.77822750       8.30938016       9.03250411      -0.40687261       0.58683428      -0.31832577
Li       8.34480842       3.55805431       6.79157226       0.02334919       0.39815965       0.65166847
Li       9.38943244       6.22087773      24.18839960       0.48957598      -0.15850062       0.58739618
Li      10.30356540       9.22970391      10.97119210      -0.24316392      -0.48970636      -1.02069423
Li      -3.72438867       9.53325355      11.42714291       0.25066589      -0.32646303       0.39807453
Li      -2.35559045       9.88905115      22.53493120       0.53656863      -0.37914641       0.12513970
Li      -0.06768848      11.62252693      11.94861771       0.31758145       0.16219055      -0.37102284
Li       4.54963129       7.65704413      10.86065356       0.48214540      -0.20612441       0.64158907
Li       0.08328803       6.48958360       7.08032767      -0.13657370      -0.52693966      -0.16319251
Li       1.49286126      10.06669101       8.69950277       0.01579430      -0.09541113       0.28911773
Li      -3.33731214      12.31104342       7.39809414      -0.07119972      -0.09651116      -0.02832790
Li      -2.62780120       9.17050313       4.56139094      -0.58017088       0.37355658       0.34011419
Li       5.36338330       4.80805658      10.77073387      -0.14448504      -0.43059683      -0.69502459
Li      -5.00626201      12.53667384      16.36868644       0.07838130       0.25416775      -0.06725000
Li       3.38530713      11.85951543      10.40057367       1.07987442       0.63776911       0.11764056
Li      -0.87346559       8.66698007      10.64119477      -0.54449683       0.00623969      -0.55993887
Li      -1.85009383       5.91092953       5.48978564      -0.66847501       0.13997047       0.17098411
Li       1.33435340      12.78367664       8.26030142       0.16559152       0.05019325      -0.48029473
Li       1.07940064       7.68185076      23.21494025      -0.35389116      -0.22303526       0.18412635
Li       1.51654589       2.78525452       9.32449085      -0.55886566      -0.36537105       0.06677484
Li       3.93631540       9.72614628      12.68226954       0.56887664      -0.42130128      -0.32978252
Li       9.60869445      10.84317315      23.72308576      -0.35521483      -0.37543697      -0.12556357
Li       5.26593985       9.29269590       8.90324347       0.26749996      -0.78540235       0.04242536
Li      -4.91621965       8.30253543       6.80866666       0.00078065       0.14754808      -0.81978270
Li      -1.86409611       8.27464494       6.64752556       0.09689948      -0.17095704      -0.02915845
Li       3.70011166       9.80981336       5.64315493       0.09603941       0.67318904      -0.21121392
Li       0.84310002       9.16094812       6.11156879       0.16218610       0.18676139      -0.43084469
Li       7.22574452       5.19517390       8.37255458       0.03954291      -0.08275538      -0.47375204
Li      -1.93131550       5.97774278       9.32567154       0.26471568       0.17311076       0.05210632
Li       4.22221530      11.80681354       7.47248497      -0.45379162      -0.42760508       0.11108035
Li       7.06028548       7.91735414       7.06668680      -0.66538253      -0.19467970       0.45209888
Li       5.47332516       6.41606642      13.57827028       0.09408316       0.07189055       0.93619275
Li       1.61646648       3.86762505       6.32398953       0.19357649       0.63249549      -0.53605788
Li       9.72094781       7.71232664       8.76094706      -0.56690239       0.60110946      -0.41893227
Li       2.82275406       2.74878273      21.33122209      -0.06583131       0.55067705       0.48225219
Li      -2.39748417       4.80448973      17.57386480      -0.24924134      -0.32151854       0.08455594
Li      -3.11529355      14.33195507       9.21719770       0.62611228      -0.39542780       0.02487080
Li      -0.58047985       3.00573395      23.41473766       0.04513187       0.15858349      -0.11241710
Li       5.91989546      -0.55059678      18.88095813       0.28910226       0.84332958      -0.22515002
Li      -0.30357239      -0.08012165      12.92546887       0.11578237       0.29409887       0.04038440
Li       3.24755277       1.63190443      23.92388677       0.13572345       0.30083014       0.11630338
Li      -1.38293852       0.56018464      16.32084374      -0.55247806       0.06054054       0.45108747
Li       2.28960748       4.07432915      16.85732915      -0.16902716       0.24847609      -0.56630473
Li       4.39024788      -0.63826253      15.74311455       0.40388270      -0.50569695       0.30508017
Li       4.63013350       4.53870704      21.07162316       0.28303461      -0.19792095       0.18383050
Li      -1.72168216       0.89431278      10.21159161      -0.11038447      -0.01540893      -0.29764606
Li       6.27619010       0.61798822      22.12164764       0.94357951       0.48264847      -0.22409138
Li      -3.14317637      15.64643878      13.22713135       0.16129975      -0.13697228      -0.10998171
Li      -0.32974554       3.32652960      18.64063086      -0.14971861       0.09991008       0.26836952
Li       3.09430447      -0.07042852      18.54185508      -0.48602358       0.43398202       0.61473802
Li       1.96169196       4.09967407      24.75154418       0.27669198       0.60133071       0.23852486
Li       8.74239435       2.24241543      12.70080839      -0.28645845       0.11733348       0.39341026
P        1.38005453       0.98997712      15.38947283       0.44236552      -0.03766162       0.63710593
P        0.11313419       5.45424465      21.52013707      -0.02995013      -0.80134667      -0.10440255
P        3.80319895       2.80903102      11.13729268      -0.11375538      -0.62397798       0.94936581
S       -0.50445498       1.84362526      14.43652875      -1.05564619       0.24065929      -0.08061962
S       -1.61246831       6.27552852      20.70365974       0.51490654      -1.69550341       0.35114560
S        1.92960704       5.05062789       8.30441043       0.35260422      -0.38412119      -0.74243114
S        2.97232067       2.22595950      15.21417278      -0.12422788       0.46159807      -0.42924076
S        1.75483126       6.63706483      21.12881146       0.09515446       0.86043789       0.74430681
S        6.10207323       3.29066504       7.49819457      -0.86689988      -1.35474856       0.12960806
S       -2.31252027      14.95356049      15.42383701       0.71486484      -1.90627877       0.82856472
S        0.30142993       3.43748490      21.12056779      -0.00404939       0.73763642      -1.88384785
S        2.40169511       1.44125771       7.34893757       0.60154818      -0.85684181       0.60092315
S        1.02881738       0.59073961      17.37154966       1.22574022       0.67993201       0.33557529
S       -0.01097472       5.62615570      23.69304991       0.12193992      -0.78677082       0.08195503
S        4.83400177       0.82408346      10.36880898      -0.59624134      -0.92665850      -1.73413999
S        3.87782310       3.94541567      23.26979559      -1.07158235       0.20383834       0.42590475
S       -5.24769006      11.03289073      12.66702875      -1.02541867      -0.46056775       0.49849795
S        0.17781762       4.97392681      17.25606487      -0.28649432       0.25440418      -0.35532175
Cl       1.10706536       1.96294736      24.80052393      -0.46313983      -0.35799783       0.04581508
Cl       3.48851489       4.24403058      19.08030883       0.33314134       1.45821379       0.96570699
Cl       0.34325067       5.19561500      12.28169539      -0.73575922      -0.44533108       1.23321008
Li       9.49965164       0.20434640      23.80179780       0.07939837       0.65098171      -0.71285794
Li       4.99001774       5.41856628      17.74031450       0.24308013      -0.03682948       0.20223429
Li       9.68781779      11.86108429      14.21012409       0.18170801       0.52456951      -0.01608096
Li       6.33280648       3.82333714      23.53083985      -0.28416266      -0.47695965       0.23306389
Li       7.16504883      11.84849081      17.58592161      -0.06836276       0.21521695       0.10557973
Li      10.89256864       3.97447168      14.31378801      -0.27846729      -0.87238970       0.56538147
Li      11.70926766       2.78824597      23.65658471      -0.24080702       0.15159106       0.56761879
Li       8.04577576       3.56898820      17.39567822      -0.10292881       0.01174705       0.20837801
Li       9.17994206       5.49623871      12.16219659      -0.54985991      -0.57579555       0.02372642
Li      10.87389077       1.41356055      14.94477526       0.02835205      -0.04825856      -0.21053306
Li       9.27032822       5.43472671      18.70952534       0.39875248      -0.32430225       0.56301561
Li       4.92499238       2.46892952      13.43198238      -0.40965215       0.10319880      -0.24524698
Li      11.41724190       4.12471438      20.74792869      -0.30460202      -0.01432390      -0.29303661
Li       2.15933587      13.01877175      12.50420181      -0.69969417       0.14016730       0.02754909
Li      12.23859726       2.97254881      17.77418327      -0.10698623       0.17402444       0.63544034
Li       9.93429131       0.80800360      17.49271245       0.27479413      -0.70878012      -0.46410997
Li       9.18421979       3.10733187      22.54024164      -0.26106401      -0.35063603      -0.19230697
Li      -0.59794014       2.81537744      12.25797761       0.13942986       0.01415000       0.31362549
P        7.84945153       0.95858584      15.59240583      -2.31437622       1.36687147       1.23018715
P        7.19909501       6.23190946      21.54407726      -0.57248812       0.32866865       0.11174116
P       11.81740854       3.07404221       7.05150706      -0.03687134      -1.00067611      -0.20884926
S        6.20285794       0.29875278      14.23157433       0.59922758      -0.72021319      -2.22852322
S        5.48953135       7.17633921      20.93950702       0.77784422       0.72477217       0.34630985
S       10.04428436       2.01772706       7.83826350       1.02624728      -0.06846048      -1.17887162
S        8.57155830       2.76146787      14.98752947       0.28373596       1.36533237      -1.29903495
S        8.90446484       7.10417350      20.67057744      -0.71091273      -1.72565656      -0.08672891
S       -0.59349055       3.95873337       5.31394058       1.08445473       0.60324168      -0.11526206
S        0.51740668      12.25120243      14.14165609       0.39707215       0.78549399       0.54415992
S        7.35991325       4.25416942      21.11395476       1.68131906       0.66966697       1.81756706
S       12.34409942       0.24390247      10.13278563       0.65528189       1.35039727      -0.98365716
S        7.22310301       1.05763690      17.50242526       0.63769048       0.50235402       0.07847689
S        6.95459548       6.23344574      23.62300368       0.72198243       0.95719815      -0.55064849
S       11.35478518       3.05104929      12.11014930       1.01032163       0.58464180      -0.49545635
S       10.77034121       4.71111983      22.96442854      -0.15110295       0.42755024       1.04924614
S        8.75543536       0.33227764      11.32369030      -0.37465385      -0.89796383      -1.09042552
S        7.22898007       5.79707218      17.44655695      -0.84423973      -0.97620301      -0.65082217
Cl       7.75645123       1.72163009      23.88850524       0.17473011       1.31566439      -0.92477169
Cl      10.01618236       3.08664419      18.81719649       0.22189570       0.55511218       1.52955327
Cl       7.57730843       3.94676931      11.59620778       1.75176500      -0.04420993      -2.42828221
Li      -1.54508044      10.53760713      18.35940484      -0.10216297      -0.30722531      -0.62979133
Li      -6.37908834      11.30730631      19.42321056       0.41018259       0.33575953       0.67990781
Li       1.72167957       6.95628826      12.88102804       1.11636498       0.17110841       0.92593325
Li      -5.14766950      10.13736567      22.09329569       0.16139046      -0.34121052      -0.22678070
Li       1.66591617       5.57859968      18.93734431      -0.29020986      -0.16387368      -0.45324855
Li      -4.33041592      10.35006552      14.66017325       0.32735281      -0.15991623      -0.45176029
Li      -2.80927108       6.34191068      23.17293425       0.31149742       0.33235562       0.61458863
Li      -4.36222711       9.48532225      17.40137012       0.05311439      -0.76229423      -0.58353395
Li      -1.86691973      13.59078965      13.72132991       0.60928235       0.05234527       0.53212733
Li      -1.04557381       3.81778453      15.82477939      -0.74074913      -0.25716940      -0.05994451
Li       1.07780484      10.70836077      20.60653076       0.27144615       0.47957388       0.69403885
Li      -2.31932013      13.38160648      17.24074693       0.11817341      -0.75597673       1.11118557
Li      -0.30822473       8.32605844      20.48983964       0.11430362       0.68159450       0.06694458
Li      -1.48315356       6.76813983      13.10413984      -0.27893545      -0.43741215      -0.22875036
Li      -1.05368596      10.87413396      15.11841942      -0.28273026      -1.17029271      -0.48529022
Li      -0.91658872       6.96423649      16.83001917       0.38769457      -0.81128531      -0.22782640
Li      -0.44872952      12.49768718      21.97532330       0.31917616      -0.62251603      -0.59166167
Li       5.13584693      12.41358740      15.05013279      -0.24313828       0.00354145      -0.86661775
P       -3.39276405       7.02153907      15.32619077      -0.42418155      -0.27121531       0.41526122
P       -3.11832629      12.15697648      20.35641515      -0.99809190      -0.20066530      -0.21872493
P        2.93728897       9.23940079      10.24335330      -0.45076591       1.15716154       1.78672905
S       -5.23439178       7.78362741      14.81592900      -0.52021280      -0.54429988       0.08357599
S        3.06172185       0.07054255      21.58395311      -0.01241792       0.24441272      -0.10769299
S       -0.36867184       8.49232944       8.47443540       1.03395594       2.06035251      -0.76964330
S       -1.77716807       8.31049026      14.81059025      -0.62067878      -0.58445407      -0.60614020
S        4.64315961       0.98276076      20.58477786       0.63062078       0.92113269      -1.46608973
S        2.10574081      11.32181937       6.60323409      -0.15769659      -1.38042115       0.63304878
S       -3.01859893       5.15139069      14.36057720       0.27872051      -1.54277577       0.05497152
S       -3.34605262      10.10649765      20.01159707      -0.89216419       0.25991215       1.83193369
S       -0.55970910       7.87309635       4.71370212       0.63611860      -0.40714166      -0.08640966
S       -3.23294430       7.09075001      17.37144326      -2.01471183      -0.23734203       0.40591368
S       -3.29074282      12.31229863      22.38495847       0.21465113      -0.97313419       0.10089830
S        1.67001185       9.27507529      11.91870674       0.86959184       0.33898455       0.97133286
S       -0.01485944      10.05810103      22.46426589       0.67963746      -1.00409938       1.14561036
S       -2.78854466       7.31915663      11.21671063      -0.69600196       0.69678744       0.53306242
S       -2.97707120      11.17508532      16.45545281      -0.05480963       0.12414941       0.21876778
Cl      -3.87019004       8.29379469      23.13527500       0.43219386      -0.08304912       0.22212149
Cl       0.44653934       9.39832425      18.65556814      -1.92538019       0.62985248      -0.69311284
Cl      -1.80651804      10.83510661      10.72044868       0.45956071       1.00920226      -0.49939662
Li       4.92256455       9.40268851      22.99247811       0.00241551      -0.30143565       0.02118698
Li       1.68583662      12.95656461      16.07119418       0.09423874      -0.56400996       0.00703773
Li       7.86597330       7.32564619      10.84907313      -0.66013609      -0.31619758      -0.00686395
Li       2.16265288      10.19502989      23.12402567      -0.51299689      -0.23855059       0.25842259
Li      12.94344222       6.02009767      16.85202577      -0.04954090      -0.39509740      -0.45022541
Li      12.11793202       8.58269613      13.88419431       0.34701175       0.30616501       0.79880212
Li       7.84321465       8.66255974      24.36856721       0.14577495       0.75908732      -0.36644175
Li       2.76257020       9.92587386      18.14970640      -0.55190609      -0.56651443      -0.39373292
Li       9.86592815       7.82671125      13.94500175       0.06946644       0.21916950       0.33588044
Li       7.22828372       7.41852203      15.72046640       0.29057174       0.80152977      -0.69112944
Li       6.11650891      10.38850117      20.79020080      -0.76066604       0.31440738      -0.38215025
Li       2.18745284      10.64686727      15.10444110       0.38325789       0.30393425      -0.34659201
Li       9.06167494       8.85756516      22.23227210       0.11233269      -0.60219405      -0.05823844
Li       2.54044314       4.29113268      13.13818942      -0.58527463      -0.34029404       0.22057676
Li       5.29461703       9.71825215      16.85250031       0.63517160      -0.20469376       0.34530945
Li       7.03357881       7.46469093      18.92375927       0.20153445       0.26208659       0.51161460
Li       6.12721492      12.37118260      22.74200485       0.32699355      -0.18144417      -0.41038703
Li      -5.73905167       8.61826339      12.72678860       0.51219451      -0.16027825       0.34128573
P        3.32789146       7.39864143      15.88094432      -0.74159417       0.32027441      -0.63726316
P        3.82796138      11.98701483      21.17528536      -0.96611377       1.09439203       0.98290490
P        7.37709645       9.79300352      10.47084318      -0.84932090       1.83407324      -0.58545027
S        1.60030662       8.09890620      15.10628261      -1.06147440       0.79522183      -0.54294385
S       11.48919054       1.42025614      21.77460862       0.30816183      -0.15110866       0.51243842
S        5.73719197       9.91326878       6.62665867       0.93352376      -0.47409442       0.07501640
S        4.66518992       8.47116588      14.70690330       1.10027959      -1.05414053       0.45670237
S       12.05018701       0.11263512      23.25738135       0.37774048      -0.79211794       1.62820460
S       -3.45562051      10.21841569       6.60212080       0.08363211       0.33061557      -0.72107080
S        3.80749423       5.34392675      15.56743378       0.29366849      -0.63315931      -0.35046507
S        3.51336047      10.01980422      20.67213612       0.17808157       2.58215173      -1.21861701
S        8.88100823       6.02106868       7.04274422       0.42032532       0.82789222       0.75902917
S        3.76571482       7.74848307      17.85994631      -0.88934202      -0.43204890      -0.89023217
S        3.85749163      12.08888129      23.17451616       1.35101428       1.49209828      -0.53681755
S        5.87537406       6.80011170       9.16293563      -0.28557045       0.72284032       0.69718883
S        7.22915456      10.23125836      22.77768847      -0.16588633      -0.66246550      -0.39087256
S        3.64778058       5.93562828      11.91438334      -1.13578816      -1.42967476      -0.11776892
S        3.72110817      11.59617695      16.76840573      -0.00145583       0.86425355      -1.11529104
Cl       3.22914304       8.33592157      24.01080425       0.66678156       0.33129283       0.68999503
Cl       6.88441708       9.96770385      18.63453649      -1.69645934       1.22738678      -0.96321133
Cl       4.52077022      12.42936299      12.77990654       1.40505243       2.13125269       0.20836979
S        8.88341447       9.99142542       9.06602892       1.65740396       0.90197253       1.08350574
S        0.47527540       0.95973633      10.84491485       0.46255872      -0.11446128       0.85083424
S        1.60004004      13.48515911      10.33357139      -1.66745637       0.24420340       0.54136305
S       -1.87717806       1.06554068       7.58010083      -0.16552004       1.31785050       1.33896899
S       -8.65054105      11.45727498      10.46575370      -0.00898876      -0.00485689      -2.92668671
S       -5.13014334      12.94351752       8.99646578       0.13403534       0.79533025       1.63471449
S       12.51939999       4.46133131       8.40719036       0.61187814       0.44335375       2.36867252
S       -1.28572616      13.24279075       7.86864964       2.11821557      -1.90919378      -0.39473108
S        5.34935446      12.93333576       9.17864680       1.40279280      -1.34553624      -0.27300556
S       -5.31322778       3.51550555       9.18117076      -0.44152842      -0.25161712      -0.35467641
S       -3.15783907       6.49030433       7.39791371      -1.20815502      -1.30949828       0.99975105
Cl      -2.19836787       2.52262069      17.66688274      -0.17031615       0.03803736       0.02584494
S       -2.32025032      14.43128913      11.45213686       0.56003342      -0.36083951      -1.12191390
S       -1.54979644       4.65265911      24.51446407      -0.61948442      -1.03433870       1.84172029
S        4.43044684      -1.65733727      17.77160682      -0.19378940       2.47540661       0.37550136
S        4.20097861      -0.42928034      23.27319154      -0.74823279      -1.00812989      -0.96811146
S       -2.99510460       2.55902532      11.28211690       2.04666786      -0.70446641       1.71013067
S        1.69660510      -0.75981500      14.28791933      -1.19172380      -0.65624246      -0.22519030
S        5.57993431      12.71933464      20.41122547       0.14481082      -0.34424140       0.88685701
S        7.76348727      12.49982795      15.18738276       0.66556399       1.06536045       0.05362281
S       11.53702871       0.97282047      25.05760660      -0.11428768      -0.36097757      -1.05656377
S       10.55944069       6.82491975      10.71326890       1.02256055      -1.34430453      -0.04020140
S       13.03239344       6.00172613      14.18740641      -0.43412778      -0.58845425      -1.93715820
S       12.56123488       0.98673027      16.44342663       1.15560213      -0.58794317       0.13340745
S       12.75913511       2.92469188      15.59353874      -1.11492688      -0.03534169      -0.56311251
S       11.81381282       6.02202768      19.22754618       0.48105493      -0.53311425      -0.33308325
S       13.48179198       4.79932485      18.74162909      -0.04715700       1.37769586      -0.62203345
S        9.26112368      -0.46522333      15.34062151      -0.52636647       0.12738844       0.55529230
Cl      -6.36018096      10.75735130      17.29238781      -0.03008935      -1.02734932      -2.00550435
S       -4.25916237      14.19344501      14.84202427       0.68334828      -1.91037633       1.34731975
S       -4.50378953      13.28226463      19.28194593      -0.52858310      -0.84247199      -1.32941456
S       -6.99165735      11.10936376      21.53415226       0.01068036      -0.34482991       1.29717235
S       -1.24387598      12.83229751      19.82892720       0.61631034       1.24583743       0.99521404
S        2.19081461      12.99384414      20.31790853      -0.84033014       0.70232728       0.94745636
S       -6.68523566       7.49067094      10.49855195       0.12820607       0.92584789       1.47470235
S       11.16267962       6.22164341      15.06043241       1.11674149      -0.43139635       0.09716974
S        7.60676781       7.02511820      13.29257835      -2.33919919      -1.76727325      -1.26019471
S       10.39288574       9.91320478      13.21822824      -0.33118347       0.16743059       0.66554780
S        7.01896442      10.47534668      15.27110740       1.45194533      -1.40649879       0.54589702
S       11.29363021       8.94182498      23.08516297       1.69043867       0.73243406       1.75866939
S       10.04007332       8.37757900      24.68892677      -0.48573673      -0.17539765       1.09187390
Li      -6.17036912      11.00810665      10.50068415       0.38585498      -0.21764789      -0.35173801
Li      -0.18262030      12.36701294       6.00285730      -0.82652777      -0.61351651      -0.38343214
Li      -4.36050596      13.13787107      11.41625852       0.27440373       0.20786201      -0.34148255
Li      13.65840558       3.02434734      13.38351080      -0.13412118      -0.31698691      -0.36015965
Li       3.81006236      14.53982361       9.89804251       0.14550800      -0.26485588      -0.01095237
Li       7.92905754       9.55315063      13.18148583       0.39050637      -0.42138599       0.38185651
Li      -4.24283844       1.57680120       8.31094446      -0.47798846       0.17830124      -0.51177988
Li      -4.93136698       4.96583941       7.21944709      -0.26029504      -0.74369791      -0.08404063
Li       0.22251983       0.32752099       8.44931222      -0.94124220       0.71647707       0.31870632
Li      -7.63240458      12.68713647       8.90763442       0.23942180       0.01156341      -0.26927877
Li      10.20151491      -0.89631090       9.71210744      -0.33038705       0.08965373      -0.36328722
Li      -9.92385428      12.90433495      11.55851871       0.02383725       0.01972512       0.08025141
Li      -8.22137245       9.27290319       9.33107112       0.34070477       0.22279677      -0.05622635
Li      11.90640756       5.48442243      11.91471414      -0.86968375       0.24594108      -0.38484032
Li      -3.59278087       4.84669457      11.90025797      -0.51732361       0.02219642      -0.05858564
P       -3.23708606       3.77734307       9.64122494      -0.68421102       2.37969373      -1.22078803
Li      -4.66441384       6.12874278       9.66634091       0.54298659      -0.01094853      -0.29077055
P       -5.64297428       8.93082363       9.39225837       0.13225741      -0.25981589      -1.04775935
