279
Properties=species:S:1:pos:R:3:momenta:R:3 LayerForceGeomOptConstraint=T E_ref=-1067.3852614196192 step=2400 pbc="F F F"
Li       4.27388965      13.14062191      18.59270443       0.74677504       0.25009593      -0.25737460
Li       7.01060389      11.59653245       7.85529237      -0.25868041      -0.42843724       0.02430697
Li       2.36046847       1.38142028      12.35203122      -0.09559098       0.64174307       0.54042179
Li       4.03499618       6.05484921      22.82266545       0.13279633       0.57180519      -0.75317782
Li       1.17295394       7.57259605       9.05545317      -0.79146958       0.22985361       0.55884394
Li       7.13656195       2.19492616      10.09832829       0.85435696      -0.46590772      -0.25360980
Li      11.72043262       0.37206781       7.80934820      -0.11383858       0.02734510      -0.62827327
Li       2.33895343       5.04489518      10.61316529      -0.65975309       0.14236824      -0.22813995
Li      -2.17072281       2.14938207       5.47440587      -0.09448523       0.41716773       0.27346593
Li       6.65700658      -0.21724318      11.91612968       0.42001595      -0.56434337      -0.22217910
Li       6.15948580      11.51399344      10.75249498       0.37281435       0.28042688       0.31283144
Li      -0.39974045       5.67049620       3.61745034      -0.70323898      -0.00075498      -0.16610742
Li       4.41383022       1.96227535       6.23653942       0.69778360       0.42413956       0.89044512
Li       2.80315126       0.01968198       9.69263236      -0.29624567      -0.08390904      -0.23958334
Li      -1.71231784      10.68627731       8.12391140      -0.02992959      -0.07496244       0.67715650
Li       0.33492129       1.68865547       6.02420708      -0.40551103      -0.57559335      -0.10833062
Li      -5.36748365      12.82038106      21.80670996       0.13348948      -0.05611262       0.24511287
Li      -0.75792887      13.79080046      10.33931249       0.00257208      -0.12741136      -0.36463454
Li       8.95161961      -0.63997155      13.14790366      -0.00680041      -0.09196560       0.37469337
Li      11.60995654       6.21136274      21.55145117       0.36961099       0.15336297      -0.35720165
Li      10.69810631       5.03845705       9.65743388       0.10615135       0.35190375       0.05750237
Li      -1.76131534       3.56630903       7.85659310      -0.59409481      -0.45128828      -0.30684667
Li      -5.54590981      10.41567314       8.25903990       0.07065976      -0.05848677      -0.16120151
Li      11.49449339       6.04639639       6.66955138       0.07761686       0.03613167       0.61987708
Li       4.29221724       2.34194332       9.08841010      -0.19696172       0.44487763      -0.06922118
Li      12.88242313      -0.86364690      12.18438067      -0.43461380       0.14153057      -0.18217907
Li      -7.33803002      11.29556218      13.55073369       0.18839144       0.09383864      -0.02030988
Li       4.23803773       4.80902119       7.31707507       0.51534128       0.62354205      -0.38574938
Li      13.54183833       2.38628283       8.86586276       0.04213072       0.64471581       0.94702784
Li      10.61541009       1.82486935      10.53427256      -0.92478174       0.51086647      -0.66428211
Li      -3.10405785       8.66616527       8.89989031      -0.59982293      -0.07248828      -0.65538146
Li       8.38795261       4.08106252       7.37557962       0.01005716      -0.69447693      -0.03379731
Li       9.54945230       6.37129193      24.00988889       0.51653266       0.13441858       0.30935821
Li      10.54828920       9.51686915      10.93925653       0.24409232      -0.49988034       0.06224385
Li      -3.70985460       9.42319723      11.62270446       0.25596241      -0.15328314      -0.55276646
Li      -2.30271416      10.16323100      22.63379341       0.03978102      -0.21706702       0.64088760
Li       0.11156055      11.13286160      12.03859371      -0.36696483      -0.22613274       0.40227634
Li       4.08524827       7.41318654       9.79453825      -0.14300239       0.43345858       0.39914750
Li       0.49756999       6.68932337       6.61330420      -0.30193501       0.21546767       0.65814701
Li       1.11272008      10.38547535       8.03165868       0.85450567       0.33039976       0.62300430
Li      -3.47630425      12.28793123       7.37892473      -0.25312730       0.87287799       0.19604596
Li      -3.08606855       9.13110176       4.56839317      -0.34985244       0.73090309       0.31338017
Li       5.46115817       4.77161288      10.39048043       0.40093535       1.01928014      -0.12405713
Li      -4.81668782      12.17542087      14.74517246       0.04980918       0.16441671       0.00803299
Li       3.19785384      11.76590894      10.24893481       0.81458595       0.17821157       0.28323004
Li      -0.72999479       8.69826277      10.43433105       0.17805458      -0.55072641       0.03485692
Li      -2.55067883       5.48098248       5.44349645       0.16238441      -0.34148891       0.10917013
Li       1.10370292      12.82119334       8.40268044      -0.12928773       0.12767989       0.00247606
Li       0.85579519       8.09108551      22.71544159       0.61056396       1.02898971       0.88260821
Li       1.45972793       2.83622379       9.64648227      -0.46583671      -0.36066126      -0.28095886
Li       3.95323278       9.70201730      12.19189320      -0.01870230      -0.18880758       0.03568326
Li       9.06071841      10.68053771      23.45882598       0.20347748      -0.61218904      -0.36020520
Li       5.05278446       9.57621424       8.48604961      -0.51250274       0.03854983       0.57426061
Li      -5.15627821       7.96698901       7.47832266       0.02885972       0.13628967      -0.17905907
Li      -2.40801620       7.97768176       6.57513226       0.11098019      -0.26202940      -1.29206350
Li       3.34228200       9.83150873       5.72804748       0.32334082       0.21126467      -0.21482088
Li      -0.03435747       9.58025217       5.72239530       0.72259339       0.54500588      -0.68799995
Li       6.94241743       5.98260394       8.04317901       0.27216490      -0.83406893       0.15752301
Li      -1.72916233       5.97444114       9.54910119       0.94595919      -0.65561487       0.07358184
Li       4.13849205      11.78204466       7.00690408       0.00916285      -0.24214276       0.53482628
Li       7.70376576       8.55489973       7.15335320      -0.54617101       0.36494016       0.46389460
Li       5.82645346       6.86851063      13.09732815      -0.52831761       0.41035403      -0.24922573
Li       1.30868849       4.03634117       6.73133440      -0.28071462       0.70513461      -0.37142659
Li       9.76856732       7.68739253       8.76822803       0.46861463      -0.40580580      -0.85008656
Li       2.68843356       2.80500790      20.73258289       0.73450747       0.02054431       0.05695815
Li      -1.92023378       5.55287833      18.40081238      -0.01116989       0.45187744       0.15051790
Li      -3.06666114      13.91980879       9.48786292       0.22137576       0.02260382      -0.16819832
Li      -1.10923459       2.46786068      22.83083823      -0.30053225      -0.32427234       0.21680632
Li       5.53831808      -0.73767880      18.59629936      -0.48903274      -0.19437913      -0.68356145
Li       0.08901242      -0.23039565      12.83094681       0.77331581      -0.33529026       0.14102409
Li       2.69307996       0.69251479      23.70889872      -0.02882307       0.32409503       0.04882731
Li      -1.48892943       1.27626413      16.83502485       0.41898718       0.55560170      -0.33288133
Li       2.47432782       4.16559971      16.96970089       0.34769285      -0.01726666       0.20406213
Li       4.40569474      -1.19844396      15.31306031       0.05813903      -0.43897006      -0.13449132
Li       4.90864117       4.29011038      20.71087289      -0.15406064      -0.25295201       0.17899242
Li      -1.40116907       1.62613756      10.01301664       0.51567073       0.18395582      -0.14312215
Li       5.13695743       1.31639207      22.38671197      -0.26038461       1.07995596       0.70922109
Li      -3.47247454      15.59516437      13.10508512       0.11461190       0.01064353      -0.23348350
Li       0.21871332       3.46039022      18.51893110      -0.28860211      -0.32644060      -0.40671417
Li       2.83996029      -0.02162949      18.02781288       0.09016714      -0.66790989      -0.72536718
Li       1.22769087       3.63121893      23.99421077      -0.78676721      -0.54322376       0.04029953
Li       9.11970214       2.39586678      12.63237444      -0.60765632      -0.06182890       0.25376156
P        1.05178578       0.97356556      15.39185526       1.21999092       0.57868261      -0.59646547
P        0.06215237       5.51972938      21.49813783      -1.04966667      -0.47935474       0.17918715
P        3.74517822       3.17349745      11.37314177      -0.65883711      -1.62254771       0.28712477
S       -0.81424062       1.43861881      14.61324589       0.61602468       0.43978613       1.25280924
S       -1.65734763       6.41864273      20.79799563      -1.14177950      -0.22610975      -0.06589367
S        2.03921123       5.54449353       8.22856539      -0.62834865      -1.32789222       0.05153747
S        2.49686503       2.48299924      14.80883230       0.76375313       1.14663249       0.91597214
S        1.63527997       6.62430559      21.01820308      -1.27454421      -0.33878758       0.97255328
S        6.17818140       3.73950901       8.11412908      -1.19955126      -1.78105717      -0.33560034
S       -2.82414342      15.02203557      15.29386381      -0.69313410      -0.79172914      -0.08809801
S        0.00953594       3.42127757      20.89605424      -0.13909665       0.07474473       0.00258593
S        2.31784908       1.54844882       7.47058015       0.17821699       0.80497893      -0.01838177
S        0.93932927       1.08807512      17.48640987       1.17574985       0.78824861      -1.30043803
S       -0.07462950       5.64802727      23.64474307       0.59222032       0.31699973      -0.06338221
S        4.88278892       0.99242896      10.98012938       0.45713648      -1.21103736       1.72141634
S        3.81486053       3.48420954      22.89252456      -0.53575519       0.89151206      -0.47700038
S       -5.07614364      10.72567571      12.89283732      -0.37717988       1.00141703      -0.88251217
S        0.36962537       5.39764400      17.13331970       0.40197676      -1.34523431      -0.91888150
Cl       0.66374420       1.39710619      24.43669290      -0.20740965      -0.73295572      -2.13937915
Cl       3.50914137       4.02133292      19.04392458      -0.02959613       0.59538739       1.47270508
Cl       0.66616015       5.32670519      12.25633287      -0.72967935      -0.56621376      -0.87238979
Li       9.15295182       0.17616913      23.67536933       0.10633941      -0.34925235      -0.02288924
Li       5.17805197       5.51884739      17.52955193      -0.22501118       0.25294224      -0.16659089
Li       9.85557755      11.66715058      14.50776866      -0.21431382      -0.39819380       0.06267052
Li       6.04957265       3.63306281      23.72281674       0.11388401       0.43192568      -0.37949271
Li       8.45012744      11.42627641      17.43862951       0.61742616       0.28178157       0.13174082
Li      12.17197330       4.17257257      14.26266090       0.32315101      -0.01055823       0.53586154
Li      11.81859542       2.37382197      23.21624489      -0.19886536       0.44733133       0.29240260
Li       8.12520506       3.24822276      17.21993102       0.11816753       0.09723230       0.11160155
Li       9.93472243       5.65414241      12.92745645       0.41131324      -0.04106899       0.32667699
Li      10.97943780       1.15333132      15.18276110       0.36157054      -0.14202379      -0.48801582
Li       9.20979254       5.34864829      18.89899070       0.22408386       0.17800041      -0.46909412
Li       5.69076295       2.63629668      12.96632807      -0.05216377      -0.15825863      -0.07272362
Li      10.93296860       3.42556630      20.92152074       1.37269119       0.40502079      -0.83127542
Li       1.83656819      13.30249878      12.76957625      -0.37964935       0.94058000      -1.19281976
Li      12.25410933       3.04235823      18.31875172       0.66401618      -0.38023911       0.32007995
Li      10.23894087       0.46086629      18.37047446       0.11854454       0.27099401      -0.77250714
Li       9.01473351       3.01581112      22.80186157      -0.39512608      -0.14508469      -0.24360775
Li      -0.48719599       2.88679075      12.55172203       0.53241329       0.73018738       0.21083347
P        8.02406354       0.50407771      15.56625663       0.23524490       0.35124398       1.01877481
P        7.33515418       5.85528973      21.57655621      -0.10231247      -0.06709009       0.04304655
P       11.53351895       3.13930178       7.08175684      -0.70205326      -0.48418317       0.95136058
S        6.46180894      -0.07206538      14.20818410       0.00505916      -0.14038958      -0.93368117
S        5.46905624       6.57069865      20.78464835       0.67254510      -0.78093046      -0.04895987
S        9.96143737       2.87652673       8.53087433      -0.02631766       0.54545007      -0.80305175
S        8.77951763       2.39478063      14.93862641       1.12185750       0.16774374       0.48670786
S        8.70824479       6.99860722      20.45711583      -0.61796375       0.00436038       0.97843436
S       -0.65835565       4.01647040       5.34335835      -0.58710794       1.68414997      -1.04290520
S        0.47631635      12.16040706      14.27364020       0.08497182      -0.05817418      -0.57992735
S        7.38425842       3.98441002      20.99932551      -0.49787264      -1.09523374       0.37951989
S       12.74662580       0.46123841      10.15387284       0.07791908      -1.06935958       0.08129641
S        7.46327146       0.86078900      17.49682265       1.28740546       0.01643688      -0.34938172
S        6.95709592       5.87386982      23.75617061       0.58024475       1.51709472      -0.58906636
S       11.34049782       3.72163791      12.06771068      -1.46164477       0.56783142      -1.27127347
S       10.67899480       4.68515189      22.91825919       0.98813463       0.44558292      -1.36745059
S        8.83892910       0.57180841      11.28799496      -0.65038325      -1.36045911      -0.30266126
S        7.38978418       5.54338344      17.36171732      -0.20584958       0.38615312      -1.19134094
Cl       7.28031191       1.57825729      23.67857996      -0.45027866      -0.26259817       1.14172764
Cl      10.03318609       2.94838633      18.70528002      -1.18952478       1.43822420       0.07552530
Cl       7.45101530       3.90386964      11.62232086      -1.36125751      -0.10571827       0.36630316
Li      -1.68735448      11.31517300      18.01097322      -0.11701786       0.06369006      -0.21554754
Li      -6.23120075      11.75956465      19.58740765       0.50880602       0.00100794      -0.67176119
Li       2.11927736       7.11959700      12.66142067      -0.59757962       0.05549208       0.23072028
Li      -5.10545308       9.45199098      21.90830979       0.00386484       0.71096840      -0.19591511
Li       1.98734121       5.98458915      18.69415750      -0.58950722      -0.02216798      -0.32836644
Li      -3.58520764       9.77449032      14.37555721       0.21327105       0.20462611       0.26677882
Li      -2.82870722       6.44137136      22.95700218      -0.58918669      -0.15369514      -0.40388591
Li      -4.40307070       9.83935061      17.10984553      -0.01924426       0.09990178      -0.34743078
Li      -1.40035455      13.45542464      13.85751189       0.09906497       0.04460547      -0.67138940
Li      -1.20581388       4.07754484      15.77577375       0.56903720      -1.33048692      -0.33029847
Li       0.88876347      10.99147004      20.39103770       0.79748620      -0.15247610      -0.95592215
Li      -4.57040137      13.26533964      17.08454015       0.29202304      -0.11250270       0.60262328
Li      -1.00721231       8.85313310      20.05263898       0.14038807      -0.03935594      -0.05355936
Li      -1.48753467       6.25880236      13.18216943      -0.47520262       0.15917247       0.36296249
Li      -0.91802567      10.38843811      15.75924862      -0.87998975       0.75853951      -0.32470268
Li      -0.26976866       7.57890256      16.78831637       0.09201712       0.25813504      -0.20203349
Li      -0.38344585      12.98881477      22.01231682      -0.26103388       0.43325670       0.20432984
Li       5.36261651      12.02939115      14.84573964       0.16948307       0.12466611      -0.33656708
P       -3.23622414       7.30094801      15.79356826      -0.29312811      -0.84513094       0.70171743
P       -2.86772148      12.14699364      20.37043347      -0.28303689      -0.24224874      -0.27642163
P        2.71540393       9.52953691       9.73384265       0.54407377       0.26978346       1.05005147
S       -5.09714405       8.06982652      15.50561644       0.43815043       1.84052808       0.26024010
S        3.53400479      -0.83594077      21.49937285      -1.53869991       0.61199017      -1.47477578
S       -0.48719683       8.56966960       8.12047912       0.54151257       0.51703101       0.65469846
S       -1.61238127       8.27654250      14.90067556       0.23053915       0.16771292       0.66134125
S        3.93373907       0.75678249      20.15535779      -0.29896973       0.16212653       0.57441869
S        1.67105643      11.65943099       6.20580474       1.35673449      -0.80141925       0.31512781
S       -3.17165346       5.39090786      14.83699084       0.35908891       1.17285851       0.15473281
S       -3.29960630      10.14833167      19.83187755      -2.66467719      -1.09076762       1.25109537
S       -1.17262811       7.67212662       4.55965943      -1.04250769      -0.12580338       0.11469018
S       -2.98823563       7.41593470      17.85211077       0.66295685      -0.47821520       0.53718424
S       -2.92743075      12.57864422      22.44256775      -0.03631012       0.31864002       0.77267313
S        1.47019132       9.08051805      11.39901807      -0.68700330       0.71708257      -0.07602993
S        0.09408091      10.28873338      22.44620500       1.65451516      -0.80145383       0.44524993
S       -2.79798858       7.29132985      11.25898355       0.55553702       0.70472730      -0.25382824
S       -3.03908132      11.43202816      16.11044011       0.14658736       0.09444388       1.09044843
Cl      -3.68185857       8.53918958      23.46992269      -0.38323647      -0.42074963       1.21027109
Cl       0.32041113       9.92689147      18.10060355      -0.72902958      -1.94674996       0.27933096
Cl      -1.77001075      10.70577241      10.72781489       2.91170838       0.64171639       0.65402910
Li       5.22542323       8.57218797      21.98365616      -0.44197391       0.14545032       0.87662209
Li       1.52855667      12.09975367      16.48672164       0.24469532       0.13851740       0.38119303
Li       8.31024564       6.55641078      11.18263037      -0.35572203       0.17324628       0.00468455
Li       2.55183494      10.46403646      22.84719042       0.56750265      -0.04513803       0.63125539
Li      13.08043113       5.61301032      16.78554974      -1.01050204       0.10820276      -0.09216126
Li      12.34308001       8.40289400      12.97284599       0.68635325       0.16265108       0.32973431
Li       7.52361628       8.33673650      24.11552245      -0.10640208      -0.11607153      -0.22224568
Li       2.76232825       9.97271305      18.38752043      -0.25173314       0.21564839      -0.63639726
Li       9.76864079       8.42058357      14.48090321      -0.20726147      -0.55150720      -0.64254026
Li       7.05099644       7.23948467      15.54406354       0.17795274      -0.64736317      -0.41254758
Li       6.18985702      10.77756776      20.40617150       0.35513641      -0.17654226       0.21553130
Li       2.60689950      10.72828340      14.80740263      -0.81774927      -0.33621949       0.28762488
Li       8.94413276       8.93903831      21.75584369       0.20322375       0.10168223      -0.06787512
Li       2.80073476       4.46580034      13.47585730       0.17967746      -0.01553000      -0.15648569
Li       5.58534693      10.04721446      16.70612181       0.84408302       0.56708083       0.08583760
Li       6.98211440       7.31073805      18.85388620       0.18758408      -0.13156573      -0.45623955
Li       6.17965439      12.25712969      22.78769310       0.40534571      -0.00694110      -0.44687683
Li      -5.63084603       8.15348540      13.19195367      -0.17360867      -0.35468252      -0.63626402
P        3.56884312       7.54712549      15.74544807       0.80113202      -0.91745624      -0.42505399
P        3.79925609      12.39082642      21.22480024       0.09222792       1.46231268       0.30930274
P        7.65814496       9.50499257      10.06374103       0.81223874      -1.01820573      -1.53133466
S        1.69302545       8.13593714      15.01447354      -0.22705826      -0.72812251      -1.37011105
S       10.45069731       1.13874129      21.42592996       0.79919924      -0.35567752       0.57678414
S        5.52470021      10.07118369       6.23513742      -0.68385616      -1.12999446      -0.01574095
S        5.04855396       8.50539142      14.59098563      -0.41509823       0.76321520      -0.25799993
S       11.58131949      -0.20749733      22.66508463      -1.63887959       1.05942311       1.13581836
S       -4.01734457       9.72416162       6.68560999       0.15567164      -0.91852984      -0.88878560
S        3.94351216       5.55543614      15.31942994      -1.50307461      -1.50770391       0.54152602
S        3.55839076      10.40746372      20.75118181      -1.59226933      -0.63800103       2.05795547
S        9.13723633       6.29504610       7.01186275      -1.47646866       1.28322033       1.52543668
S        3.90158366       7.66949138      17.78102611      -0.49448438       0.18471056      -0.61228702
S        3.61975008      12.67989121      23.21337895       0.60003506      -0.44068389       1.50011887
S        6.52298628       7.60855223       9.45634805       0.34086264       0.83891850       0.61801161
S        7.01482372      10.12899918      22.59326849       0.23858127       1.24577000      -0.76380130
S        4.01755983       6.30029707      11.67135993      -1.98431895      -0.13569439      -0.17077626
S        3.70141320      11.58592572      16.82893305       0.94518163       0.01391798      -0.05803595
Cl       3.26178098       8.19975764      23.70549241      -0.40372958       1.13243269       0.69779641
Cl       7.18136881       9.67958835      18.63480295       1.81364677      -0.53549707       0.74045303
Cl       4.19086681      12.03297359      12.72554049       0.95776675      -1.55978673       0.72179325
S        9.03582099      10.09389696       8.75905288      -0.33351831       0.97249959      -0.19210361
S        0.66337072       0.82610877      10.82353290      -0.17659051       1.10492607      -0.81983120
S        1.64637071      13.47766102      10.39022718      -0.40017814      -0.39946093       0.54575515
S       -1.56846754       1.27769144       7.57632763       0.38955014      -0.78470521      -0.86933567
S       -8.27104921      11.33762596      11.31302455      -1.69905698       0.07946818      -0.07254811
S       -5.01262724      12.51469778       9.36642383       0.36819865      -0.88253918      -0.36255369
S       12.92475775       4.47614145       8.06531902       0.39007860      -0.59886201      -0.94752688
S       -1.50565515      13.19165245       7.97611315      -0.42546837       0.16455834       1.26515534
S        5.08104467      12.58388479       8.98039238      -0.35971168       1.31018616       0.55012768
S       -5.01372892       2.99422595       9.20874732      -0.87947645       0.61387332       0.56198134
S       -3.55999527       6.21854165       7.41260762       0.62966370      -0.89001242      -0.36132305
Cl      -2.22165599       3.08595817      17.95590370       1.46869468       0.31978448      -0.52351744
S       -2.42167966      14.08404925      11.77064488      -0.41815431       1.41099107      -0.85203341
S       -1.83460365       4.72224575      24.32607412       0.03568987      -0.81490635      -0.03225518
S        4.20252181      -1.97221194      17.46405416       0.12015120      -1.16485319       0.37122003
S        4.52207326      -0.86827631      23.36027509      -1.34941489      -1.40111005       0.23804022
S       -2.90632990       2.86354941      11.77101517      -0.82151903       0.37510263      -0.73138854
S        1.63840542      -0.76752003      14.67720930      -0.61892989      -0.45498125       1.66693478
S        5.59313024      13.16927577      20.57227117      -0.09712212      -0.60968523      -0.45734801
S        7.82044448      12.70085487      15.41548805       1.01150013      -1.69329043       1.70943591
S       11.52210542       0.31659609      24.58562628      -0.19797753       1.11041010      -1.31513526
S       10.65301961       7.05031495      10.84565431       0.07741623       0.55864787      -0.17479469
S       13.18295222       6.37555017      14.10105595       0.76923943      -0.83651627      -1.25229352
S       12.44001664       0.77122951      16.90345474      -0.74316031       0.12945775      -0.15043087
S       12.99132570       2.57189495      16.07557929      -0.16735322       0.59989972      -0.20742972
S       12.27414924       6.07184839      19.16759453      -0.03399112       0.51027883      -0.43579414
S       13.27469604       4.41037940      19.93639743       0.19205199       0.56812690      -0.04435816
S        9.44233584      -0.82185253      15.41352873       1.69439895       1.30165656       0.73422604
Cl      -6.53698528      11.42669625      16.81048254      -0.54978954       2.35465955      -1.03179804
S       -4.78457485      14.57122162      14.97103180      -0.82511962      -0.72652235       0.29909393
S       -4.42462511      13.34725184      19.64525533       3.27487833      -0.96812997      -1.91065405
S       -6.87674220      11.25687452      21.60286431      -0.46252326       0.97034756      -0.69993415
S       -1.05928100      12.79577513      19.64366068      -1.43911375       0.49775653       0.44242329
S        2.35468779      13.35802154      20.18745356      -0.57312956      -1.19219774       1.19722705
S       -6.85665428       7.36566483      11.08409111       0.93983852      -0.61483125      -0.03707255
S       11.24850955       6.28273328      15.03908373      -0.32994064      -0.58128358       0.46789865
S        7.98553306       7.31686807      13.53549339      -0.34515857       0.51561308      -0.70453158
S       10.64425826       9.97059119      13.25051508       1.08886371      -0.29162282       0.00841079
S        7.48945371      10.58383351      15.05929426       0.49688837       0.13830871      -0.45630118
S       10.90810477       9.02555957      22.88202519       1.87905368       0.05111038       0.24972570
S        9.75405379       8.75246483      24.78135233       1.48077975      -2.53657015      -0.48405368
Li      -6.10305562      10.89506162      10.86362888       0.84451968      -0.59255628       0.12911257
Li      -0.30738224      12.65648687       5.96883806      -0.45017012      -0.26285981       0.14322162
Li      -4.11818512      12.54285627      11.75228936       0.95737979       0.56308323       0.01111189
Li      12.97711055       2.11575287      12.05922001      -0.08432193      -0.14238814       0.23832619
Li       3.76465739      14.32674212       9.76659536      -0.31194706      -0.04432379       0.02216075
Li       8.40145783       9.53920950      12.67765378      -1.22636057      -0.04347282      -0.41074249
Li      -3.70076189       1.20756340       8.38403516      -0.51759300      -0.21133571       0.03957911
Li      -5.05515585       4.51099077       7.33763896      -0.42505645      -0.02329884       0.08436568
Li       0.51935495       0.32500369       8.48901286      -0.45307664       0.06224777       0.00916519
Li      -7.17047447      13.13120047      10.11347373      -0.20474061       0.49628133       0.01011343
Li      10.46221500      -0.61482461      10.16215388      -0.33822985       0.15172827       0.66199425
Li     -10.53156437      11.25934970      11.19068996      -0.67741953       0.24138264      -0.64579504
Li      -8.41424106       9.15896054      10.16245460       0.45120819       0.54593836       0.03130583
Li      12.37411340       5.77637321      11.94457756       0.25495603       0.54352780      -0.04105613
Li      -3.75578362       5.28524017      12.41739348      -0.30727003      -0.48538342      -0.21491043
P       -3.28120934       3.82385791       9.89499372       0.70525803      -1.03377508       1.36031035
Li      -4.60990578       6.21157355       9.71026290       0.04661141       0.11904106       0.10362769
P       -5.68679357       8.53668527       9.91184643       0.61241392      -1.14937146       0.90456293
