279
Properties=species:S:1:pos:R:3:momenta:R:3 LayerForceGeomOptConstraint=T E_ref=-1029.987886585034 step=400 pbc="F F F"
Li       2.86487567      14.42565349      21.94501665      -0.01069905      -0.36403042      -0.41228942
Li       8.66474731      11.37464545       7.76281933      -0.36977725       0.55688220       0.71505389
Li       3.35717836       0.85348611      11.96222995      -0.27915655       1.07331843       0.41715556
Li       3.88548171       5.87309997      22.84783204      -0.19514604       0.35390391      -0.53443912
Li       0.10319261       4.94103631       7.25883886       0.75923258      -0.70540491      -0.52830574
Li       6.40497000       2.15340899       9.28095818       0.72895547      -0.13100803       0.40251845
Li       9.64937235       1.55651764       7.82118991      -0.30046903       1.10485825       0.06876752
Li       2.31834740       4.56194351      10.24576128      -0.69298032       0.80814499      -0.61188120
Li      -2.70623651       1.50222775       6.22628811      -0.00403406       0.63415414       2.02539382
Li       5.71813900      -0.79158974       6.72455942      -0.00893302       0.23334711      -0.56136154
Li       3.49674272      13.16264886      10.92790822       0.38430871      -0.62745793       0.00201987
Li      -0.16909678       4.80970167       4.52724754       0.21701676       0.26897367       1.01218613
Li       3.51527655       0.61356385       4.97118688      -0.09609201      -0.12145761       0.21237401
Li       2.65097078      -0.25716719       8.86403771       0.35400169      -0.32727590       0.31946174
Li      -3.81010552       9.68984088       5.15585750       0.02382201       1.36945163       1.64913495
Li       1.26414971       2.18453858       6.07977743       0.29525316      -1.14581287       0.65184774
Li      -5.99328564      12.50352037      22.54715206       0.17589207      -0.48181118      -0.19337286
Li      -0.05646674      14.27259374       8.82064281      -0.31002678      -0.44205252      -0.16051491
Li       7.15276742      -0.56660852      10.06216873      -0.09709107      -0.01311939       0.82197812
Li      12.73959929       4.15321859      22.73699364       0.18435531       0.75567914      -0.20331895
Li       8.57136132       3.53350509       9.70562729      -0.17590206       0.71348657      -0.40723026
Li      -0.79083188       2.08195234       7.81394048      -0.58002441       0.27297595       0.18475668
Li      -7.28560936      11.13039376       5.71062938       0.24347544      -0.76174322       0.76249489
Li      10.57406844       4.69405860       6.14658208       0.05641869       0.69021795      -0.67208325
Li       6.01731588       2.46352538       6.13905686       0.82674446       1.15309292       0.69353723
Li      12.70722413      -1.25778794       6.33124754      -0.05435351       0.70404572      -0.23027508
Li      -7.05270425      10.29432933      11.18483663       0.06349801      -0.36147951       0.51640999
Li       4.36558259       4.03131541       7.82561375       0.07424042       0.58642026       0.44503749
Li      13.64460511       1.92893979       6.91523110       0.10365973       0.27766967      -0.53331385
Li      10.58478828       1.11609470      10.24967049       0.58692853       0.19437669       0.39560784
Li      -1.49139015      12.00463701       7.78199286      -1.33431017      -0.83152957       0.56927659
Li       7.12374701       5.28215041       5.11661494       0.34269638       0.06640551       1.14247195
Li      10.12897397       6.03555910      23.33663931       1.30481425       0.12971658      -0.05326028
Li      11.30683288       6.77241268       9.03912866       0.41095536       0.11361089       0.68040684
Li      -3.53323544       9.36742335      10.17800655      -0.44850674       0.47339016      -0.62282846
Li      -1.09388005       7.94869900      23.85505949      -0.74213972      -0.68716685      -0.99080739
Li      -1.07116010      11.98199336      11.25828463       0.63700446      -0.12026647       0.21223706
Li       2.81546670       7.38542885       8.64688228      -1.42516100       0.14292533      -0.01775651
Li       2.34531538       6.64093138       5.85646576      -0.99686131      -0.46750447      -0.55163152
Li      -0.09798686       9.47781347       7.02554784       1.17092630      -0.09049702      -0.29963848
Li      -4.77982464      12.76432122       7.11172006       0.19846311      -0.13215061      -0.25896762
Li      -0.43893535       7.98679392       3.25959216      -0.14300774      -0.45298265       0.00222950
Li       4.81351842       5.40734217       9.88561774       0.27141224      -0.21959461       0.05548319
Li      -3.99205930      11.93609368      10.26329448       0.16889895      -0.11511437       0.52786868
Li       2.21447070      11.85846997       8.85695976      -0.32224873       0.01992323       0.49549583
Li      -0.80990607       8.09278946      10.24025267       0.61790847       0.23430523       0.57181563
Li      -2.38401004       4.12059200       6.93653071       0.37176637      -0.21487565      -0.32494335
Li       1.16198629      12.65335264       5.40403702       0.23908809      -1.54962110       0.58918535
Li       1.67800018       7.83741956      23.56837487       0.06973208      -0.70522179      -0.19859956
Li       2.53101292       2.08588251       8.94988457      -0.67048884      -0.56177110       1.96654098
Li       3.59811619       9.65182950      11.32065040       0.71889182      -0.28680905      -0.37727862
Li       9.47589968      10.66835066      23.46564235       0.11401824       0.06925548      -0.70744946
Li       5.79691764      11.62915864       8.09450473      -0.59539568      -1.16408001      -0.54373024
Li      -4.88998827       8.22087400       7.47190175      -0.08299326      -0.21464549       0.11285714
Li      -2.16196369       7.00737898       6.37790501       0.80584793       0.77753730       0.68592220
Li       4.57819123      10.46932090       5.91032849       0.09885579      -0.82414319       0.67620676
Li       1.92040724       9.02912489       5.11100239       0.19161077       0.39219534       0.04301204
Li       8.17226700       5.98562179       8.60538506       0.33606095       0.71468208      -0.60745036
Li      -2.61228687       6.01128412       9.04604945      -0.08692300       0.99285496       0.23695467
Li       3.41634711      13.08326780       6.83449425       0.47129021       0.67980329      -0.42668490
Li       6.58931845       8.16521844       6.87217063      -0.56369198       0.67463376      -0.15753460
Li       6.17148064       8.62730602      10.08859645       0.66009031      -0.05784163       0.50196703
Li       3.16190649       4.16450235       4.47278170       0.08376887       0.02859574       0.69693628
Li       8.69783693       9.49022630       5.44493676      -0.19978092       0.41331742       0.20605352
Li       2.35324154       2.83387707      20.80676329      -0.54132971      -0.03079054      -0.35465130
Li      -2.57691399       5.07504917      17.08750531      -0.57777285       0.43266725       0.22087883
Li      -3.00586166      14.84775424       9.52863107       1.04801512       0.28529356       0.07155083
Li      -0.72811884       2.51838593      23.05824500       0.48721829       0.09680665       0.07743565
Li       5.58359610      -0.57258299      18.89277112       0.33769086       0.82710900      -0.18484513
Li       1.22581424      -0.65142140      13.03320550      -0.80176244      -0.60169491      -0.26438753
Li       2.75198897       1.17140268      23.63261227       0.38016325      -0.40924704      -0.31252782
Li      -0.83148935       2.91858047      17.53777443      -0.06058827      -0.45423188      -0.33412093
Li       2.86227441       4.06965401      13.75553884       0.28774783      -0.21540685       0.07496007
Li       4.27481122       0.83954948      15.82537377      -0.13598943       0.28948401       0.10682390
Li       5.12640180       3.53620226      20.64773490      -0.25948782      -0.41579628      -0.77416975
Li      -0.83360288       0.70551465      10.05355675       0.04117088       0.51397574       0.00754098
Li       5.74455584       0.70824123      22.53222396       0.16030542      -0.61158378       0.46396687
Li      -5.33711197      14.14940652      12.90806869      -0.00211344      -0.17844328       0.24990948
Li       1.96161253       3.52377418      17.16575054      -0.33980630       0.10237728       0.12043953
Li       2.32448463      -0.43755517      18.55193988      -0.64464573      -0.18751692      -0.07977829
Li       1.54820727       3.68290477      23.78429424      -0.55360359       0.64645794      -0.03260950
Li       7.24538254       0.08299742      12.81874184       0.25055217       0.37641688      -0.08157509
P        0.22706080       1.05324086      15.62054314       0.23515788      -1.56407466       1.19509292
P        0.07629041       5.71499075      21.79162268       1.71684965       0.21248111      -0.50891563
P        4.22102187       3.14481253      10.56544075       0.92904235       1.60476505      -1.50638504
S       -1.14259667       2.33168746      15.05311271       0.18668670       1.08036589      -0.06437972
S       -1.57127190       6.93269976      21.34079071      -0.14184978      -0.27794754      -0.92583916
S        2.23929948       5.01816936       7.81258087      -1.72928414      -0.28590237      -2.18853405
S        2.07526366       1.51909165      14.42770458       1.63460765      -1.90742442       0.55665156
S        1.88223638       6.63112072      21.51337558      -1.58845235       2.63815817      -0.01813100
S        6.58545578       4.28234719       7.80593508      -2.20922789      -0.97728209      -0.40984950
S       -5.14615243      12.23274033      15.79126324       0.30993675      -3.12862781       0.07122509
S        0.22684408       3.74899279      21.15170201      -1.44777168      -1.08042258      -2.40556577
S        4.05173650       1.02237498       7.14173576      -1.42993607       3.01740090       0.38209804
S        0.87394043       1.31166677      17.54891508      -0.39908151       1.62552526      -0.19337528
S       -0.24754034       5.38122738      23.89095481      -0.06561795      -0.37396414      -0.65560170
S        4.50735639       2.84385383      12.55059607      -0.38229280       0.63064204       0.12071215
S        3.75199944       3.33852175      22.76305390       2.15526868       0.49438235       1.09031227
S       -6.19006204      12.21540192      11.47524892      -0.45946032      -0.75901893       0.86696837
S        0.66330147       5.38586794      17.82930575       1.25748372      -0.32600696      -0.16051838
Cl       0.73678021       1.84003940      24.60097759      -1.11502988       0.80386511       0.26649385
Cl       4.06888507       3.92884377      18.59794282       0.51936758      -0.51522553       0.13432719
Cl       1.00918108       5.07817469      12.29051425      -0.17233852      -0.25682830       2.26347315
Li       9.21089217       1.91631708      21.82177516      -0.18611819       0.18512546       0.10398269
Li       5.39393604       5.63617807      17.25078182       0.36981831       0.07238368       0.07329781
Li       7.71714212      12.66584861      13.70855246      -0.20915612      -0.00699766       0.54964968
Li       6.02651130       3.47123120      23.80462357       0.74208254       0.01495516       0.15745666
Li       5.66970714      13.16054790      18.25588210       0.72212384      -0.23137161      -0.20124750
Li      10.06025461       3.03162625      12.38275017      -0.36644886      -0.57213812       0.87285313
Li      10.31942914       1.50816775      24.05885657       0.56284042       0.33602063      -0.10696455
Li       8.20965911       3.21142795      18.30148083       0.52037216      -0.08314794       0.21055624
Li      13.04745138       6.47249908      13.26397333       0.99605659      -0.27527840       0.27307249
Li      10.84144145      -1.16330652      14.82354325       0.02810351       0.93139305      -0.60877618
Li      10.58138374       4.46907055      20.90509434       0.78275818      -0.22506697      -0.51185930
Li       6.72209810       3.28500123      13.19753042       0.19264186      -0.22580700       0.63029375
Li      12.43744249       1.88893872      20.23780464      -0.57787456       0.23901604      -0.21523202
Li       1.83505323      12.07370897      12.61575385       0.00243060      -0.81539953      -0.52731991
Li      11.48363946       3.00101185      16.84002084      -0.12691909      -0.09301348       0.51655772
Li      10.17838562       0.45272151      17.91007783      -0.21759882       0.88529679      -0.75623389
Li       8.65264339       3.49773902      23.91301756      -0.51639828      -0.53634611       0.43461127
Li       0.09311019       2.40633658      12.87672514       0.85842831       0.43153628       0.18066734
P        8.21737980       0.91212619      15.36580789      -1.18009401      -0.72143288       0.32529969
P        7.39724239       5.57234075      21.74506253       1.49042245      -0.44797247       1.11888354
P       12.16252230       3.25142186       8.47032397       0.29265907      -1.37949460       0.02110249
S        6.45104656       1.42524762      14.57876611       0.88697540       0.16070553       0.57808315
S        5.72862522       6.60338541      21.10372419       1.04555969      -0.44876149       0.25296153
S       10.39758226       4.46055948       8.61824786      -0.00199445      -0.51688535       1.56501380
S        9.55915638       2.33827997      14.92173012      -1.64431770      -1.05857614       0.74293962
S        9.29073590       6.48978059      21.29029016      -0.10296453       0.34087470       0.44650736
S       -0.89889070       2.97884039       5.64183028      -0.49535101       1.54357389      -0.37926742
S        1.30660044      12.12970552      14.85301464      -0.89850466       0.73074636      -0.05725063
S        7.41363019       3.62551783      21.04397099       0.20038675       1.77322209      -1.33776231
S       11.49411491       0.05659273       7.69494981      -0.38668015      -3.84990067       1.55924026
S        7.83394535       0.92675426      17.40461754      -1.87993277       0.66894895       1.71473195
S        7.35093156       5.51833866      23.89185183      -1.15702184       1.18796072      -0.48705776
S       12.24410501       2.49198424      10.69574136      -0.21745194       2.11727900       2.78169875
S       10.66242234       3.49447234      22.95154404      -0.88378495      -1.74689415       0.67233402
S        8.40715217       1.53386593      10.69903280      -0.56676938      -2.25224559       0.00670252
S        7.89577779       5.40609516      17.40962801      -1.18193151       0.38892124      -0.40105915
Cl       7.35435959       1.46677444      24.14778689       0.14208266       1.32934580      -0.49566726
Cl      10.65925716       3.42143606      18.80756138      -1.28183623       1.15111377      -0.49141100
Cl       8.48674606       4.88155610      12.64405892      -1.51990366      -0.51516238      -1.45923834
Li      -1.28361258      10.38709479      20.89567911       0.36946740      -0.43275957      -1.23201518
Li      -5.96285154      10.12547552      20.86682389       0.41635324       0.81571825       0.90933903
Li       2.22436505       7.34961649      12.23315878       0.02838093       0.32246707       1.35080110
Li      -4.84667921      10.30591941      23.60207272      -0.11777645      -0.38536782      -0.61607904
Li       2.32777686       5.41194365      19.40451614       0.43142273       0.70647606      -0.81910713
Li      -1.88889080       8.47772695      12.68527315      -0.56641956      -0.19127659       0.63830570
Li      -3.55807685       6.73814155      22.96899836       0.04689306       0.45013247      -0.14461350
Li      -4.89341005       9.52872300      17.58100261      -0.29649386       0.27289579       0.78007281
Li      -0.68427835      14.63815008      11.84500894       0.40422623       0.00065063      -0.13638636
Li       0.61089280       6.59969433      15.86130418      -0.17257521       0.49953123      -0.42973869
Li       1.04476092      11.64900345      21.89216853       0.05744219       0.31781691       0.70621912
Li      -4.81121758      11.53993621      13.40051364      -0.37633911      -1.24877685      -0.35104041
Li       0.44187679       8.44055095      21.28551020       0.34720814      -0.60813085       0.31585928
Li      -1.17517855       5.27738078      11.67939857      -0.20650760       0.26924498       0.75036861
Li      -0.37359837      10.63290306      15.59387614       0.59002707       0.53351272      -0.03030992
Li      -0.62104924       7.21131111      19.02275319       0.24987369      -0.15855751       0.59333098
Li      -1.41847879      11.61324114      23.79905657      -0.33088262       0.48592735      -0.06518851
Li       4.55236294      12.33093733      15.12109672       0.00725821       0.85321175       0.97782476
P       -3.06527364       7.67192378      15.33622096       1.84375681      -0.78096118       0.06820729
P       -3.23348004      12.21368198      21.75438360       0.97655610      -1.10259760      -0.94585082
P        1.31293053       9.65225161       9.63381009       0.38710407       1.83674822      -1.40160959
S       -4.69030629       8.83876588      14.70237702       1.28469858       0.04262245       1.20772631
S        3.41895760      -1.03750330      22.09821477       1.12025862      -0.63972713       1.36698156
S       -0.74400491      10.09911530       9.00239414      -0.43824256      -1.40170265      -0.76179228
S       -1.06934189       8.29978724      14.95924975       0.60068441      -0.15152658       0.72635018
S        3.81372140       0.40001999      20.44536643      -0.77944819      -1.29057699      -0.37583940
S        1.95751832      11.03840144       6.71252466      -2.61031585      -0.35050031      -1.51642304
S       -3.33009610       5.66752419      14.73839370       1.45280960       2.36620120      -1.22246818
S       -3.58836739      10.19282184      21.38798276       2.39417218       0.49860510      -0.71105248
S        0.06637081       7.02933155       5.39015766       2.54744036      -0.55494546      -3.68958057
S       -2.95744255       7.66220059      17.33745429      -0.63320985       0.60901652       2.10990336
S       -3.69308465      12.50901860      23.90823087       1.16583136      -1.52821560      -0.56527486
S        0.93744019       9.30488751      11.80438239      -1.31956209      -0.14126022      -0.24828288
S        0.25775792       9.71265807      23.21056817       0.20788853       1.59024813      -0.82730802
S       -2.91209006       6.91306035      11.17624927      -0.11856679      -0.05318185       0.04466298
S       -3.94662246      11.89325378      17.32636229      -1.15977828       0.58336866      -1.18095757
Cl      -3.17565044       8.35743095      24.27292587      -0.57214388      -0.95417223      -0.89151135
Cl       0.08033289       9.42755990      19.35471142      -0.13095448       0.62858252      -0.57173470
Cl      -2.65210691      10.43656587      12.01383063       0.29567194       0.71852424      -0.89016143
Li       6.34910618       9.01263032      20.88624963      -0.18595850       0.79254646       0.00393694
Li       2.08309086      12.53982033      17.04513469      -0.52556038      -0.09308205       0.28990185
Li      10.36051452       6.37242122      11.90598972      -0.08296501       0.17195537       0.63957712
Li       2.69201163      10.21627650      23.62201234       0.59417864       0.12876750      -0.97699264
Li       9.92092946       5.92417514      18.70746357       0.26939170      -0.14617693      -0.78844462
Li      10.15098783       9.06820850      12.83622157       0.40560345       0.40297119      -0.21101054
Li       6.29876087       7.70566904      23.72578483      -0.78386352       0.44405858       0.76565503
Li       2.59733011       9.66358033      18.22353538       0.08076735       0.79330091       0.32972591
Li       9.18042597      11.00568273      15.11315649      -0.07636225      -0.31247717       0.51115376
Li       8.80912031       6.23300851      15.46976735       0.24108688       0.67341198       0.64038414
Li       7.68803698      11.73604492      21.75307406      -0.05091089      -0.78596029       0.16075150
Li       2.54338921      10.22539266      14.43003248      -0.47072669       0.05136629      -0.02070445
Li       9.16301586       9.66369445      20.55029533      -0.13920764       0.58510434       0.39596942
Li       6.00529165       7.26163303      12.66803258      -0.39288423       0.65344071       0.83056077
Li       6.21783273      10.28888621      17.16251794      -0.14282335       0.57609130       0.06634010
Li       7.06440726       7.27916143      18.15908667      -0.12214273      -0.00027307      -0.01998223
Li       5.44729611      11.19372363      23.44147209       0.82268156       0.65985301      -0.27651323
Li      -4.72101054       7.60419732      12.59496822      -0.60170222      -0.07415818       0.53541172
P        4.31428746       7.62419883      15.29910658      -0.41190921      -0.51162872       0.31740342
P        3.89190637      11.88837385      21.13403358       0.71250924       0.29206457      -0.75786902
P        8.62541562       8.94718981       8.57871916       0.24640883      -1.40025936      -0.45535617
S        2.34784990       8.14695662      14.97469223      -0.51781245      -0.79669581      -0.49752313
S        9.47598006       0.09378617      20.11656767      -1.58625479      -1.15366926       0.47973037
S        6.88173440      10.75984993       6.21426129       0.36853755       1.11846036      -0.32205289
S        5.30073197       9.01045131      14.02373186      -1.64966993      -2.23419882       0.11282253
S       11.16340065      -0.13726833      21.43629450      -0.15258114      -0.81437885      -0.21948096
S       -4.20979195      10.65168412       8.26311363       2.77958479      -1.35310550      -1.42586845
S        4.49138309       5.59245548      14.87682081      -0.92244932       0.09666052      -0.00623781
S        3.90668023       9.87516678      21.32608766      -0.63686491      -0.83800849      -1.94199377
S        9.27989380       7.46049195       7.21616570      -3.17897496      -2.54375725       0.55792189
S        4.65140298       7.87022784      17.34949070       0.95459566       0.34602633      -1.73829816
S        3.31481636      12.47138910      23.30016950       0.58947488       0.39037644       2.75955715
S        8.41010170       7.64903178      10.29493913      -0.94123231       0.10965717       0.09379121
S        7.15687947       9.87364134      23.13448819      -0.16986705       1.22359252       0.18274548
S        4.20346054       7.53689039      10.56142056      -2.24649579      -0.84676339       1.44101144
S        4.16540572      11.49831680      17.22734626       0.43054123       0.33328152      -1.11345487
Cl       3.89981634       7.55696162      24.48605867      -1.28783391      -2.89424362       0.52859824
Cl       7.40012746       9.47747104      19.01595743       1.18803982      -0.18905425       0.69726097
Cl       4.25864548      11.49396511      12.49772449      -2.37051160       1.86191208      -0.22465643
S       10.30087612      10.17741065       9.00700978      -1.09533419      -0.91769080      -1.22373694
S        1.43209830       0.96087949      10.62926591       1.67254861       1.36170181      -1.82213844
S        1.11017065      13.29238888      10.62397028      -0.22566407      -0.32979698       1.72138917
S       -2.13400717       0.43782831       8.12612991       2.46835173       1.91593662      -1.89141467
S       -9.29268346      10.73793978       9.77399686       2.28101016       0.55585737       2.99760329
S       -7.03436212      12.80540949       7.14185481       2.00623602      -1.46311048      -0.09484467
S       13.94114938       4.25097115       8.28462206       1.03650079       0.09334838      -0.88591815
S       -2.12458354      14.02159054       7.51365701      -0.35753753      -0.39056315      -0.26227083
S        4.38619517      13.19064509       8.83270304      -1.62615991      -1.20237189      -0.39689483
S       -4.77594337       3.79871566       9.88193522      -0.14166327      -0.43647098      -1.05166784
S       -3.89276117       5.95172178       7.12080114      -1.81657677       0.00661225      -1.53087980
Cl      -2.81198866       3.36189699      18.45651145       0.20312746       0.90503022      -2.22461345
S       -2.87875380      13.85477555      11.80217995       0.92333903      -0.67331694       0.26738878
S       -1.97837563       4.46928715      23.29479385       1.84915188      -0.00364247       0.16964983
S        4.18126084      -1.06837886      17.24052881      -0.29715246       0.36509871       0.13630468
S        4.23675080      -0.73102373      23.93350875      -1.22432064       1.48372087      -0.07605450
S       -2.06671944       2.74826940      11.24355647      -0.28088677      -0.33770507       0.13225351
S       -0.18726091      -0.82693473      15.14065872      -0.23283922      -0.44019733      -0.33650213
S        5.45789147      13.14879069      20.87401580       0.78516790       1.90884064      -1.34975223
S        8.01487561      12.93798975      17.20919432      -2.42841136      -0.86210418      -0.22593307
S       10.79269636      -0.65901118      23.27815412      -1.56588442       0.50284421      -0.34514046
S       12.28524686       7.04344828      11.04617291       1.41383171      -0.11367282       1.32605414
S       11.27850970       6.00557080      14.71799861       0.06539493      -1.94150471      -1.85044146
S       12.18092623      -0.86458625      16.85751404       1.04266407      -0.14884845      -0.43098324
S       11.97414765       0.94205866      15.74286542       0.44166431       0.71626315       0.67283634
S       12.40093290       5.93770242      20.47722026       0.37646143      -1.35624184       1.00696286
S       13.65973166       4.17947887      20.77477157      -1.27811035       0.77972542      -0.46770782
S        8.55201020      -1.04506343      14.73473553       0.63123854      -0.14559431      -1.41645168
Cl      -6.62458822       8.88565689      18.95723296       0.44498921      -0.47556866      -0.78859079
S       -6.05546742      13.83157317      15.69897689       1.68611420      -0.05029387      -1.66451750
S       -4.58635615      13.16781880      20.51832646       0.84237107       0.62565937       0.69350669
S       -7.05415832      10.44020638      22.84519700      -0.47755955       1.65203302       0.59913315
S       -1.30048904      12.80438606      21.35870880       0.08492229       0.77944071       0.44407894
S        2.18590629      12.99598893      20.19371819      -0.91687370       0.96087098      -1.76801569
S       -6.70637239       7.59652566      11.18036797       1.49030370       0.39457337       0.87836153
S       11.48307407       7.90321514      15.25084476       0.18455646       0.35406778      -0.34273497
S        9.51884425       8.48062123      15.05282255      -0.02406692      -1.28924877       0.17648688
S        9.23650302      11.27522537      12.93130792       0.95405111      -1.43765692      -0.88948207
S        6.98858101      11.78489629      15.83373380       1.21692370       2.28819547      -0.79107079
S       10.16091733      12.13073185      21.40909930       1.58183997      -2.57289791       1.54052964
S       11.20425852      10.32332558      21.40132328      -0.54769471       0.76146637       0.71707500
Li      -6.46599859      10.93492188       8.69643009      -0.51013324      -0.77987481      -0.27755283
Li      -1.73958053      16.28865543       6.72023132       0.34303189      -0.38450224       0.09979679
Li      -7.97020308      13.15202233       9.59454475       0.00199831      -0.76596983      -0.35822763
Li      13.28113129       0.52117782       9.44606616       0.65254691      -0.30251222       0.68102156
Li       4.98080478      15.57585307       8.63962677      -0.68812349      -0.29957911       0.15069769
Li       9.08577274      10.60498684      10.83030847      -0.38819813      -0.39340556      -0.16835947
Li      -4.02910734       1.35404077       9.08968255      -0.66107842      -0.27448826       0.50097330
Li      -5.54858072       4.10753464       7.67673081      -0.39204482       0.22176199       0.91731348
Li      -1.90939764      -1.44702199       7.03316212       0.00368903       0.65337102       0.46362044
Li      -9.35541828      11.88180575       7.61366393       0.99198192      -0.23359468      -0.68308986
Li      10.29825860      -1.74706688       8.44073333      -0.58357734      -0.13841574       0.08038759
Li     -10.54657093      11.67755481      11.33679716       0.02920460       0.55101906       0.15065089
Li      -8.62109089       8.59354742       9.60045560       1.01858473      -0.86786379      -0.15337858
Li      12.72231186       4.83988036      10.63667553      -0.06201212      -0.26099390       0.08034669
Li      -3.70335890       4.31053831      11.98427328      -0.47235484       0.37783609       0.20041111
P       -2.58880392       3.60594297       9.45861077      -0.21572099       0.21081760       0.43333324
Li      -4.88440563       6.18880461       9.79123817       0.19117952       0.33957923      -0.16291321
P       -6.01989469       8.56670760       9.55750899      -2.52926554       0.27680714      -0.29124639
