279
Properties=species:S:1:pos:R:3:momenta:R:3 LayerForceGeomOptConstraint=T E_ref=-1067.0176093840464 step=2200 pbc="F F F"
Li       3.87809727      13.42285528      18.36458971      -0.38452006      -0.46233707      -0.08786436
Li       6.99518092      11.31985722       7.41745382      -0.35506274       0.68650008       0.05558762
Li       2.72612184       1.72821901      12.43386516       0.54971417       0.10313410      -0.53233510
Li       4.17589115       5.85251182      22.75234293       0.07023089      -0.19676125      -0.36447943
Li       1.03448700       7.33814767       9.44661701      -0.02742972       0.80633272      -0.34157520
Li       8.04735061       2.62089640       9.90169943      -0.47120502       0.91725774      -0.02133643
Li      11.41511828       0.76455628       7.92010571       0.22651651      -0.52584759       0.06332756
Li       2.37461345       4.83610067      10.99185072      -0.78091573      -0.32201508      -0.81496691
Li      -2.09763786       1.83040671       5.59413002       0.29221804      -0.04753311      -0.59521438
Li       6.72924019      -0.53272521      11.28742181      -0.91504784       0.01297134       0.44015687
Li       6.20735659      11.79849754      10.87822107       1.06093950       0.41570637       1.03044883
Li       0.15131624       5.94903980       3.92618019      -0.55519336      -0.26026573       0.13461332
Li       3.83884968       0.85523760       5.81573682       0.21496110       0.12507641      -0.47944688
Li       2.76902973       0.25947079       9.73654636      -0.26219818      -0.09117115      -0.03821572
Li      -1.55787496      10.66671725       8.42006914      -0.17168494       0.27625295      -0.35346275
Li       0.50794033       2.01542264       6.26798499       0.13472115      -0.04889410      -0.10466181
Li      -5.20195542      12.59043351      22.06251855      -0.37276725      -0.06985323      -0.36721694
Li      -0.68941408      14.32287600      10.31451042       0.65497363       0.46298266       0.08330826
Li       8.23475495      -0.87969380      13.13873527       0.07326262       0.25418673      -0.24087852
Li      11.13314367       6.27317818      21.77660337      -0.50461480       0.06678428       0.26868077
Li      11.14599243       4.97627112       9.72013727       0.73696663      -0.04661042       0.05807272
Li      -1.32461148       3.56082987       7.84043510       0.59171327      -0.31317921       0.36223050
Li      -5.40006770      10.77022273       8.30386873      -0.33997935       0.21183030       0.58445138
Li      11.28940325       5.85989074       6.92750135       0.04233660       0.00474887      -0.22301163
Li       5.07336190       2.01092053       8.44932459      -0.21042768       0.22205036       0.36308401
Li      13.57465559      -0.69123023      11.66908176      -0.55401076       0.06327910      -0.02498301
Li      -7.33594907      11.33038030      13.10474482       0.10339007       0.42975594       0.15391409
Li       4.20328399       4.50497245       8.64653533       0.05383626       0.01135786      -0.63928320
Li      13.87053236       2.01500324       8.53738009      -0.14931312       0.19100990      -0.52541910
Li      10.72058179       1.86767937      10.32789131      -0.24156788      -0.73066759      -0.69532207
Li      -3.13104544       8.73416514       9.02899803       0.29824077      -0.13200140       0.20818815
Li       8.41226634       4.35013590       7.20226407      -0.47896689      -0.15096837      -0.24588124
Li       9.69405933       5.82316779      24.47561203      -0.24739677       0.32911359      -0.10392396
Li      10.20453941       9.54343878      10.92279735       0.53794076       0.28233791      -0.04659305
Li      -4.05758967       9.30710548      11.39065023      -0.23209265       0.09841658       0.12140576
Li      -2.29179504      10.23150129      22.51293846       0.23448716      -0.60717448       0.33589218
Li       0.33290038      11.65223857      11.62241633      -0.00171512      -0.27258656       0.06103306
Li       3.79908131       7.29891385       9.48032527      -0.20312058       0.77871638       0.30238085
Li       0.29241691       6.71821387       6.76399514       0.60869091      -0.20397818      -0.25847388
Li       1.20849698       9.42034527       7.77251324       0.29294923       0.24444398       1.05682824
Li      -3.61582064      12.59085258       7.31636310       0.62734679       0.98209969       0.06176462
Li      -2.50999204       9.48167022       4.59739787       0.13002859      -0.21451431      -0.19153675
Li       5.95901597       4.79922073      10.66261895      -0.36773232      -0.27430906       1.12450691
Li      -4.18786211      12.56122934      14.29293088       0.18359210      -0.17314232       0.05816123
Li       3.37639357      11.79946976      10.36789091       0.86033414       0.43057257      -0.13727804
Li      -0.93472720       8.40969809      10.87072671      -0.64073753      -0.87051875       0.27360180
Li      -2.39851845       5.50977544       5.29458311       0.35210993      -0.07678155      -0.22010742
Li       0.66096845      12.65557871       8.10504075      -1.06887280      -0.31610271       0.42051950
Li       1.23257973       8.12027343      22.94484529      -0.18893658       0.03026705       1.02296914
Li       1.94279150       2.94190899       9.59450107       0.59912881      -0.26758702       0.33311136
Li       3.96723372       8.86137349      11.88107615      -0.04441490       0.25408831      -0.45313093
Li       9.19460941      10.52263420      24.14042779      -0.33393970       0.12259345       1.29107016
Li       5.06781121       9.86308621       8.64373406      -0.05606729      -0.13782263      -1.08763503
Li      -5.16428032       8.14997313       6.94822537       0.55152523      -0.04558005       0.63612683
Li      -2.41108179       7.97024925       6.59927075       0.54207500      -0.06801246      -0.77362925
Li       3.46363749       9.87214335       5.41456148      -0.13063586       0.00033667       0.31430841
Li       0.53385168       9.29484365       4.62436367      -0.57400714      -0.18092008       0.58466022
Li       7.65766527       6.03063875       8.55017550       0.14684763      -0.08560873      -0.58649340
Li      -2.11011568       6.36105837       9.21480842      -0.05856041       0.35819950      -0.13247160
Li       3.39653546      11.57551414       7.54655411       0.28832863       0.82816302       0.07497287
Li       7.48299822       8.59546728       7.11185164       0.28274601      -0.92507735       0.23342454
Li       5.89932592       7.04724229      13.05519653      -0.58257601      -0.53899623      -0.63005242
Li       1.87489407       4.13130445       6.63007304      -0.37808906      -0.28249551       0.18970095
Li       9.90637107       7.91533901       8.69361313       0.03650094      -0.25200764       0.15830792
Li       2.64628940       2.74656267      20.89614104       0.75529767      -0.26311553      -0.12297904
Li      -1.86711749       5.40667431      18.70382645      -0.56204406      -0.03938444      -0.02184959
Li      -3.41809893      14.04316991       9.75192877       0.37901061      -0.11391021       0.85302122
Li      -0.65877929       2.81590010      23.58060196       0.11045647       0.77755899      -0.40999345
Li       5.47289143      -0.89869715      19.05763050       0.00179889       0.92111383      -0.20311185
Li      -0.22735560       0.01137804      13.17112231       0.90192885      -0.11939973       0.16034608
Li       3.22483305       1.32979618      23.97462534      -0.91495597      -0.22289307       0.54879371
Li      -2.05127653       1.25555643      17.21874953       0.26896756      -0.05749561      -0.15563803
Li       1.85728690       4.56463769      15.65353369       0.05362022      -0.79413326      -0.41690110
Li       4.86497761      -0.21432976      16.00757200      -0.30875888      -0.75371508       0.21650610
Li       5.12094494       3.94557889      20.66504282      -0.02886504      -0.44268257      -0.03836078
Li      -1.18187766       1.69006443      10.15158131      -0.54764193       0.01122184       0.66350144
Li       5.49405186       1.48988746      22.45158040      -0.01632793       0.57641955      -0.31196424
Li      -3.87897828      15.23062251      13.35699037       0.15628285       0.15481890      -0.54704276
Li      -0.02851776       3.39256911      18.71008152       0.42579536      -0.97134976      -0.27316426
Li       2.55444125      -0.23916805      18.75309937      -0.70757756      -0.60308720      -0.95215526
Li       1.95707907       3.79745088      24.07427152       0.50042407      -0.34487406       0.61664056
Li       9.49247045       2.10080946      12.56747469       0.12409471      -0.09148620       0.35804076
P        0.75738413       1.00590844      15.47529894       1.44126753      -0.47229172      -1.18993383
P        0.13160510       5.42415085      21.58950890      -0.91969451       0.41079321       1.14221439
P        4.16614831       3.17620947      10.78249922      -1.12593709      -0.79736659       0.74627129
S       -1.07170604       1.91185684      14.70827589       0.69416278      -1.00195842      -1.43600693
S       -1.54783735       6.44475594      20.88001898      -1.26848753       0.29539569      -1.26433165
S        2.24256361       5.68165807       8.38780052       0.15022001       2.02294006       0.54859019
S        2.26821830       2.34447992      14.76470317      -1.16362946       0.67059643      -0.09437328
S        1.67350672       6.53294699      20.96231457       0.62322779       1.01576710       0.53155402
S        6.46572790       3.81759948       8.27592772      -0.45205516       0.40928506      -0.90516667
S       -3.30054731      15.28140826      15.52822304       0.86936998       2.15532528      -0.98311431
S        0.20164646       3.40204047      21.23590052       0.19820489       0.16459933      -2.16607907
S        2.49421585       1.85507118       7.50558528      -0.95768762      -0.68172841       0.48538742
S        0.44788816       0.95283901      17.52597831      -0.19584576       0.53404934       0.05717796
S        0.18442726       5.74026293      23.76164894       0.59969221      -0.63502401       0.62485026
S        4.79337791       0.93162549      10.78956626      -0.14367519       0.70529860       0.96209050
S        3.88907645       3.52196093      22.81669125       0.39985888       0.76413337       0.75436790
S       -5.09943769      10.71280468      12.83482990      -2.09192725      -0.87466298      -1.08369378
S        0.34288314       5.22647016      17.33546968      -0.32042691       1.23203452      -0.76267750
Cl       1.28058980       1.76718128      24.93314417       0.81100637      -0.34244437      -0.22773096
Cl       3.59102722       3.61653887      18.86839698      -1.05109612      -1.31382278      -0.06605888
Cl       0.57571183       5.22921102      12.71933887       0.09808272      -0.45706042       0.31737210
Li       8.97613223       0.20987192      23.23440848       0.26252280      -0.06594465      -0.90868429
Li       5.16021270       5.37392578      17.68814895       0.20628696      -0.27097418      -0.38119145
Li       9.76428058      12.13145774      14.19005183      -0.44351006      -0.75605349      -0.66371721
Li       6.03617636       3.85371530      24.05645335       0.11713955      -0.03260526      -0.10082771
Li       7.50428401      11.62103089      17.32690065       0.00124284      -0.90980917       0.12618389
Li      11.52209492       3.75888862      14.44125576       0.15504159       0.75298666      -0.10368268
Li      11.91978598       2.40554029      23.75886057       0.02297560      -0.49713203       0.39606033
Li       7.62628477       3.12663639      17.18793798       0.65512779      -0.25920733      -0.07004316
Li       9.70564554       5.55879434      12.86715482       0.28761944      -0.23081329      -0.01694591
Li      10.98748819       0.87179195      15.51121764       1.12719630       0.21045936       0.16575431
Li       9.48929456       5.46322941      18.84702020       0.63185753      -0.36100552      -0.25096179
Li       6.23489251       2.02801836      12.25628553      -0.67316358       0.55464996       0.22077625
Li      11.42640730       3.34072092      21.06232326       0.38625360      -0.53707735       0.88804156
Li       2.14855011      12.96699317      12.79291500       0.19230353      -0.13092588      -0.03387876
Li      12.27054667       2.90661933      18.30229462      -0.08585605       0.45594931      -0.42392135
Li      10.52031511       0.71892324      18.78198406       0.17730554       0.30066359       0.66916007
Li       9.16782234       3.20813621      22.90811024      -0.41863018       0.12690342       0.64324218
Li      -0.05887888       3.00972697      12.62377942      -0.25001587       0.00925470      -0.31174347
P        8.05355630       0.50140140      15.50569920       0.45467535       0.09554856       0.09856565
P        7.24139405       5.70551943      21.37700947      -0.54528782      -0.91116077      -0.57534478
P       11.85708053       3.25099684       6.95627194      -0.70619037      -0.40313244      -0.75886621
S        6.54995823       0.19812029      14.02870595       1.78204565      -0.40236168      -0.02287261
S        5.46635400       6.63238247      20.68760424       1.15914083       1.76173153       1.10372029
S       10.05138974       2.77434623       8.08853804       0.11943299       0.25729423       2.15100274
S        8.93593228       2.27325940      15.00525215      -0.14006646      -1.15449354       2.36405457
S        8.67631831       6.89870971      20.70389364       0.22895105       2.06351242      -0.32476608
S       -0.38712248       4.17546287       5.60979368      -0.03815028      -1.68990699       0.98656738
S        0.57603969      12.21897150      13.96383212      -0.62232405      -0.97947186      -0.46891273
S        7.57482180       3.66372917      20.93968597      -0.83736483       0.02558334      -1.35357731
S       12.65344380       0.56527274       9.99836099       0.51927304       0.37668396      -0.02434579
S        7.19309432       0.58039167      17.41146922      -0.55642564      -1.57864906       1.67596903
S        7.03525187       5.79874295      23.43809216      -0.33283934      -0.58621970       1.66940050
S       11.29246635       3.45996692      12.10429967       1.80741594      -0.23981302       1.51925300
S       11.15910218       4.43298023      23.24844998       0.73445872       0.30658330      -2.56465611
S        8.88846212       0.34665232      11.19707874       0.09919856       1.36133240      -0.84807149
S        7.54069289       5.55982224      17.43821760      -0.37409176       0.56254352      -0.04065003
Cl       7.30512139       1.98720222      24.07907901       0.36193368      -1.20344811      -0.48245978
Cl       9.81502205       2.99677004      18.63383688      -1.10959037       2.08923369      -1.05217293
Cl       7.79530296       3.99718914      11.81000438      -1.44800852       0.51031965      -0.85800633
Li      -1.70857465      11.46892217      18.10082069       0.57056056      -0.15239118      -0.00083154
Li      -6.42868489      11.26946123      19.90134268       0.78409398       0.15480471      -0.07937996
Li       2.04046307       7.05293853      12.71626103       0.66461096      -0.02952926       0.64464657
Li      -4.95634563       9.69752945      22.01202777       0.34087034       0.11751804      -0.60598272
Li       2.31825250       5.67289949      18.60468355       0.43893890       0.25751327       0.23733146
Li      -3.79251644       9.80373441      14.61720395       0.04483684      -0.49402211      -0.52345713
Li      -2.74386542       6.59071994      22.94963240      -0.73032746       0.23112295      -0.39754423
Li      -4.16150967       9.73438258      17.63088706      -1.20971465       0.49259784       0.80010932
Li      -1.66570272      13.57775905      14.14338075       0.36418992      -0.06850998      -0.31683957
Li      -1.38665722       4.01637713      16.19064835       0.36550579      -0.05577450      -0.25420918
Li       0.69678183      11.71710241      19.89899312       0.01332270       1.14593781      -0.12325558
Li      -4.67733235      12.80010474      17.12034984      -0.47070866       0.47771870      -0.07705638
Li       0.30860203       8.44563381      20.02587768       0.01659304       0.23172859      -0.02354988
Li      -1.42548796       6.34119785      12.95256598       0.34448859       0.41719778      -0.16014327
Li      -0.87212855      10.76522406      15.46798046       0.09719677      -0.34491464      -0.77653216
Li      -0.30896378       7.40784586      16.90098473       1.00037902       0.90385924      -0.55615036
Li      -0.55762271      12.66174399      22.08570254      -0.15409362      -0.13206415      -0.19088793
Li       5.46702774      12.65185454      14.61409264       0.45163598      -0.25243022      -0.14560559
P       -3.17740658       7.05906176      15.44290933       0.45949425       0.53019376      -0.59364818
P       -3.03890500      12.56087622      20.58958510      -0.83003236      -0.36247637      -0.23883515
P        2.61366938       9.48674939       9.75181435       1.00256816      -1.38461433       0.50088598
S       -5.05360720       7.83611948      15.45298393       0.68775888       0.83990971       1.22642830
S        3.79596451      -0.85124518      21.83228280       1.33849688      -0.12803488      -1.09452027
S       -0.67335871       8.26492369       8.27050935       0.68055416       2.61351601      -0.40756726
S       -1.76552087       8.09171728      14.46195172       0.17026557       0.48263498       0.53339924
S        4.22601233       0.80507259      20.50618320      -0.91892042      -1.27468201       0.15638293
S        1.61283808      11.14874096       6.17264833       0.51545730       0.66988790      -1.11607805
S       -3.00970928       5.11823671      14.68331530      -0.09317417      -1.04563962      -1.27832063
S       -3.13664161      10.49405585      20.11858746       0.53325664       0.29460359       0.41199364
S       -1.11013002       7.75579754       4.61969872      -1.15927222      -1.68901391      -0.69801552
S       -2.71839357       7.30229559      17.44788562      -0.61151570       0.40686927       1.63352935
S       -2.89928633      12.78403015      22.65740540      -1.18668517       1.76476383      -0.73410926
S        1.41111447       9.05336533      11.41070016       0.47068257      -2.45140668      -0.10826847
S        0.33730573      10.31160242      21.84201009      -1.48722566       0.15029421       0.48822111
S       -2.94111030       7.10246355      11.24791087       0.28819470      -0.35340452       0.02771791
S       -2.97391599      11.56146127      16.03070824       0.61324860      -0.74655931       0.66451281
Cl      -3.59021077       8.60354528      23.40111022       0.88494519      -0.41186878       0.86925102
Cl       0.46416402      10.44022408      17.68270176       1.06641063      -1.57086680       0.91941836
Cl      -2.09791963      10.45478380      10.84992622      -0.71576016       0.21547153      -2.60344303
Li       4.76973501       9.03461214      21.84550965      -0.93990328      -0.62137946      -0.17944786
Li       1.78666804      12.49386452      15.90224909      -0.89639702      -0.38711955       0.38559324
Li       8.27608052       7.08733441      11.10580269      -0.41939702       0.24643298      -0.52249209
Li       2.65789744      10.49329706      22.49122467      -0.44276235      -1.26410141      -0.31781355
Li      12.23297305       5.05351901      16.56884862       0.04470421      -0.45526303       0.06235903
Li      11.07554623       8.00360298      13.01257458       0.36060033      -0.14646760       0.27896282
Li       6.84938889       8.18093806      24.03569597       1.04057047       0.07208247       0.03452053
Li       3.05207378      10.19332820      17.81949849      -0.59689535       0.30738663       0.58974608
Li       9.41898762       8.52160122      14.85424454       0.16961045      -0.49309916       0.56026483
Li       7.25446488       6.09473771      15.32575156       0.02875320       0.10542968      -0.44545572
Li       6.29477417      10.77137841      20.36716920      -0.64851229       0.61609276       0.88235257
Li       3.35572067      10.77619704      14.18594500      -0.67664447      -0.51370914       0.12835814
Li       8.63461232       8.90673894      21.93958881       0.44694011       0.21008749      -0.14739642
Li       3.88245920       4.50646302      13.02439286       0.39647758       0.64531942      -0.28253876
Li       5.39155256       9.88777732      16.60989913      -0.10349531      -0.52437063       0.17518563
Li       7.09859288       7.24795703      18.91300153      -0.22156312       0.53897451       0.17279937
Li       6.03929753      12.35304642      22.80418471       0.67758209      -0.47329039      -0.37678396
Li      -6.07597045       8.20663214      13.25190954       0.17299472       0.89701967       0.05536512
P        3.52176333       7.48122075      15.48497388      -0.46680138       0.15769503       1.88295313
P        3.65400020      12.47711434      20.87840417       1.23017175       2.26674286       0.14823207
P        7.48677075       9.65902065       9.97762092       0.31394239       0.09828730      -1.11595434
S        1.57693205       7.76657083      15.05421221      -0.25014997       0.60966567       0.40727568
S       10.32787083       1.14042256      21.48899353      -0.90345480       0.19301694       1.04332954
S        5.47671338       9.99589218       6.35766625      -1.05758043      -0.19486729      -0.93923913
S        4.79754111       8.71083349      14.40379862      -0.17568789      -1.46315884      -0.20935306
S       11.66137786      -0.07055012      22.71602959      -0.43528745      -0.45851364       0.01171005
S       -3.47701148      10.30173582       6.61426888      -0.05043028       0.26433425      -0.13229358
S        4.26221147       5.52351654      15.28300796      -0.57420921      -0.49501243       0.23826089
S        3.70636286      10.47155212      20.22539551       1.36858101      -0.66365708      -0.83135816
S        9.08656729       6.69855338       6.89042870      -0.76286514      -0.00654228      -1.46923638
S        3.93017336       7.80957489      17.54970979      -1.02629869      -0.72571423       1.83140828
S        3.53542616      12.55215499      22.88800029       0.34724388      -0.27465400       0.80766146
S        6.46009109       7.78678622       9.46923839       0.45859238       0.29622871      -0.93933226
S        6.86261197      10.18865914      22.69114695      -1.03660028       0.44723524       0.80660483
S        3.90213135       6.42428977      11.62784022      -1.34657380       0.25525799       0.49602796
S        4.10912492      11.91929122      16.41929669       0.04055904       1.74030340       0.41291667
Cl       3.77521536       8.35368363      23.82708840       0.42739988      -0.50053101       0.14799401
Cl       6.92497215       9.80220731      18.46555840      -0.96426549      -0.92674726       0.18464079
Cl       4.41839793      12.03956773      12.59870777      -1.89967917      -0.73911345      -0.14784461
S        9.07089537      10.30158725       8.71304283      -1.06549969       0.82069548       0.33729526
S        0.97088071       1.11299587      11.05271994       0.38504480       0.52353079       0.45308154
S        1.52272887      13.38502698      10.34345107       0.29455822       0.43052697      -1.06217740
S       -1.70755079       1.12737688       7.86614797      -0.15533402       0.00456072      -0.34574657
S       -8.72717568      11.23371753      11.18443300      -0.20549937      -0.21650547       0.00137347
S       -5.34167727      12.86477955       9.07896240       0.23969943      -1.78348473      -0.06133626
S       12.82828339       4.49084447       8.27239306       0.89102142       0.40132337      -0.30966850
S       -1.52476406      13.16407194       8.10372390      -0.44818203       2.34608013      -1.39661331
S        5.16322944      12.49023334       8.91261516       0.21117216      -1.38254097       1.45134887
S       -5.10239261       3.26826495       9.69686323      -0.57806648      -1.18969425      -0.60706053
S       -3.66738000       6.14399472       7.35037616       1.02905459      -1.27994237      -0.13573457
Cl      -2.45750573       3.24505300      18.37129888      -1.38765212      -0.16259022      -0.01257770
S       -2.58588573      13.97213375      11.91710475       1.07528797      -0.33038618      -1.71566512
S       -1.70611943       4.86724304      24.24304811      -1.49907218      -0.68856692      -0.53100694
S        3.89219581      -1.77885243      17.44951573      -0.21329432       0.37214378       0.21963113
S        4.44382133      -0.69969319      23.65835615      -0.30176313       0.67966796      -0.04732453
S       -2.50647453       3.09544347      11.74698601       0.88775977       0.67113918      -0.61456545
S        1.21244240      -0.73798360      14.74188038       0.49494163       0.70539365      -1.02090162
S        5.43661555      13.15974876      20.30053660       0.42300002      -2.34024021       1.90379168
S        7.77216598      12.73238724      15.23014504       0.08096882      -1.74235121       0.84196540
S       11.13892221       0.21512795      24.66947854       1.40256771      -0.03158191      -0.31396683
S       10.76262589       7.06503088      10.66172750       0.57847238      -0.28499630       0.70971554
S       13.20614111       5.92647193      14.56031910       0.86000887       1.18317018       2.45666735
S       12.34988251       0.78130589      17.28995723       1.23034315       0.77102824       1.03779786
S       12.69093065       2.43748211      15.98638996      -0.09054196       1.60323752       0.75972900
S       12.17508286       5.40371473      19.20766822      -1.57953386      -0.62125389      -0.84602133
S       13.31607570       3.85947189      20.13160593      -2.26103796       0.22749018      -0.94765127
S        9.38758286      -1.01741690      15.25710535       0.47398641       0.80680659      -0.42822954
Cl      -6.12372734      11.19650583      17.62527945      -0.08950443       1.15761060      -0.32550313
S       -5.19139660      14.53249745      15.21232352       0.37144727      -1.41366489      -1.08587909
S       -4.74869572      13.39411994      19.94657374      -0.63262131      -0.50826138       0.42433069
S       -7.02289861      10.80867961      22.00200360       0.85664714      -1.38900478      -2.09027566
S       -1.20751332      13.30193672      19.75446711      -0.90839530       1.46400031      -0.81660723
S        2.13114447      13.43061634      19.94602658       1.98428967      -0.15547077      -0.75861083
S       -6.73633803       7.31747954      10.57071169       0.20822281       1.19999025       0.25205133
S       11.11691739       6.16754989      14.72815187      -0.37545706       0.46292302       1.44744407
S        8.03840206       7.21647487      13.35768658       1.57869548      -0.60185919       0.66960694
S       10.39999130      10.09447590      13.28223954       1.14541129      -0.11208360      -0.69695436
S        7.21803533      10.70569531      15.04477039       2.03216973       0.35927814       0.44797330
S       10.75147318       8.70734160      23.10499746      -0.99819261       0.92325359      -0.22623504
S        9.29848963       8.07756202      24.58220220      -0.29812253       0.85502868      -0.64197095
Li      -6.28880722      11.14035439      10.70940418       0.14737232       0.93425283      -0.39458247
Li      -0.60146408      12.21438916       6.17753242       0.37201010      -0.52065840       0.32451897
Li      -3.90244520      12.07690157      11.12311739       0.54941596      -0.22156728      -0.34399288
Li      13.34696014       2.55756082      11.54995113      -0.90035262      -0.73191257       0.46811508
Li       3.42476484      14.11487631       9.12936897       0.47090910       0.31667812       0.40113601
Li       8.10325442       9.71013808      12.78487931       0.22946443      -1.02982577      -0.33818261
Li      -3.80942009       1.52827649       8.49032264       0.10226546      -0.33033229      -0.24766167
Li      -5.44914160       4.29270524       7.47945393       0.03022848       0.54628459       0.27258884
Li       0.41460640       0.51246499       8.46128547      -0.45849907       0.28178406      -0.40250753
Li      -7.75905986      12.86037642       9.45262958       0.27124021       0.53764264       0.85323214
Li      10.72415797      -0.82193632      10.69803471       0.55713471      -0.21683575       0.13304100
Li     -10.48651989      11.93095595      12.46332620      -0.30993933       0.16514850       0.42112797
Li      -8.42190097       8.99276614      10.45564901       0.07806767       0.77910105       0.29997224
Li      12.22341600       5.72665012      12.27492474       0.12303486      -0.37375806      -0.63452557
Li      -3.55679648       5.09016856      12.29647524       0.42413625      -0.11821985       0.24647929
P       -3.01453644       3.84275746       9.83215636      -1.41332892       0.51441586       1.70873412
Li      -4.82195006       6.19680416       9.49237562       0.09225420      -0.17788024       1.11843810
P       -5.74408018       8.74476873       9.52007501      -1.47168339      -1.03667754       0.90518906
