279
Properties=species:S:1:pos:R:3:momenta:R:3 LayerForceGeomOptConstraint=T E_ref=-1016.5827178937408 step=300 pbc="F F F"
Li       3.01991215      14.09146561      22.08805313       0.32112033       0.44310804       0.84602306
Li       9.04164596      11.22930974       7.07957120      -0.52754368       0.62429095       0.83802447
Li       3.01593885       0.94160111      11.29971924      -0.66190210       0.28053605      -0.15078227
Li       3.94319466       5.56576663      22.71476047       0.36052771       0.02198425       0.43140126
Li       0.86874449       5.33615661       7.51208475      -0.23009661       0.56341512      -0.02733022
Li       5.88630145       1.75122974       8.31105917       0.48994165       0.75925189       0.32110182
Li       9.44360800       0.72021126       7.53302152      -1.35319294       0.47991244       0.38544813
Li       1.35546859       2.79312516      10.40569140       0.78189598       1.32134117      -0.27144336
Li      -1.36840350       0.86170380       4.61375405      -0.91893501       0.90835847       0.15068978
Li       4.99805541      -1.32027941       7.38380742       0.99550545      -0.37890820      -0.36807657
Li       3.49396682      13.56299572      11.00992354       0.57317755       1.06556670      -0.26662668
Li      -1.04099274       4.70140853       4.54745618       0.63732989      -0.20619147      -0.48111067
Li       3.81521837       0.63116466       4.75656496      -0.04186154      -0.00082194      -0.03724715
Li       2.22373742      -0.22653630       8.34959225      -0.13650156       0.20527054       0.54022740
Li      -3.34201767       9.23780392       3.30964487       0.02146021      -0.92915607       1.32332175
Li       1.56685472       3.11000234       5.37090345      -0.48691292      -0.19127033       0.72261661
Li      -5.92052926      12.34868476      23.09462117       0.42803896       1.28340184      -1.50448978
Li       0.07290228      14.72413793       8.85563003      -0.11327934      -0.35015512      -0.06852860
Li       7.22504664      -0.68205207      10.00889691       0.09731278       0.72097133      -0.47329833
Li      13.07030941       3.94967136      22.95258703       0.91949493      -0.02910987       0.60804455
Li       8.51601528       3.24168481       9.14060453      -0.37881668       0.44444872      -0.37179184
Li      -1.66284560       1.65635743       7.49676330       1.53046811      -0.13504445       0.32669453
Li      -7.34943520      11.96202019       5.69688793       0.76094386      -0.86939164      -0.61244860
Li      10.06722766       4.30329652       6.28111818       0.76588865       0.01088943      -0.31958723
Li       6.61048418       2.22532598       5.92339588      -0.74434606      -0.78285877       0.69857140
Li      12.75227467      -1.42145763       5.94830236      -0.22290000      -0.20245001       1.08907527
Li      -7.63905464      10.82652268      10.81898129      -0.03870638      -0.18514069      -0.04239910
Li       3.92180505       4.93967482       6.82803144       0.29309007      -0.37529181      -0.02598968
Li      13.23830403       2.45148894       6.42025212       0.53256780      -0.65965750      -0.39094889
Li      10.60859123       1.03666046      10.34335575      -0.89279687      -1.22688700       1.01673142
Li      -1.06171066      12.36412890       7.50386247       0.29298322       0.81087937      -0.39597784
Li       6.74421099       5.35041721       4.77819797      -0.24274020      -0.98255201       1.39427391
Li      10.03155386       5.88151018      24.07511344       0.38388959      -1.21509316      -1.94163109
Li      10.92238545       6.99723708       8.94461299       0.18864799       0.30010527      -0.15508683
Li      -3.24423518       9.48465039      10.02460108      -0.76641867      -0.35659299       0.37239192
Li      -0.52724068       8.39430192      24.98018866      -0.00395454      -1.75807063      -1.36748748
Li      -0.86656393      11.96194810      10.92007848      -0.04661779      -0.51204458       0.09549810
Li       2.72945811       8.23166426       8.69610062      -0.53394120      -0.13441411       0.27214437
Li       2.17288173       6.43594985       5.06906696       1.19815401      -1.08178740       2.39760701
Li      -0.75069807       9.18034123       7.09970270      -0.15432102       0.37908393       0.96285674
Li      -4.06930961      12.89569552       7.28707078      -1.18792035       0.57264762       0.31097703
Li      -0.19852114       7.41979309       4.03176188      -0.16099695       0.19783873       0.69721808
Li       4.95794857       5.23375223       9.46906617       0.80194631      -0.48164043       0.66918541
Li      -4.09788111      11.97558054      10.34959673       1.68858285      -1.03478182       0.45140476
Li       2.11167917      11.45462853       9.32351123       0.88263040       0.30048924       0.72282083
Li      -0.91030930       7.64228545       9.37977535      -1.28914447      -0.40562571       0.15966700
Li      -3.18801832       3.91978233       6.10178603       0.25633786       0.09263334       0.40227662
Li       1.18873000      11.68183610       5.16790035       0.52456245       1.82478911       1.11582400
Li       1.69755919       7.49478527      23.92424269       0.29113350       0.09277792      -0.06052286
Li       3.17209965       2.26894183       8.24251421       0.24286759      -0.89188259       0.20106604
Li       4.28948607       9.60865707      11.21555507      -1.70819193      -0.16122668       0.90440568
Li       9.91371115      10.50918681      23.26803685      -1.10406761      -0.32243383      -0.54152086
Li       6.20275876      12.17359327       7.87347706       0.51746718      -0.54592581       0.10077224
Li      -4.32885245       8.07065004       7.41393199       0.16130964       0.19423562       0.12238691
Li      -2.47365877       6.89775475       5.40501905      -0.32281970      -0.15681030       0.30921468
Li       4.56474026      10.41144022       5.76911595      -0.69707255       1.41532884       0.02413515
Li       1.82434931       9.18825343       5.47207191      -0.26106886      -0.30479005      -0.28561924
Li       8.57068060       5.96184893       7.67822571       0.00426665       1.80957677       1.21200981
Li      -2.36544220       5.63486361       8.83253113       0.61372884       1.01721031      -0.05510667
Li       3.47751980      13.10760111       7.14682011      -0.44566162      -0.12086311      -0.15644333
Li       7.02166790       7.83549234       6.99774199       0.32069119       0.90676838      -0.29689483
Li       6.47134801       9.07673406       9.44149767       0.18022875       1.13723459      -0.31840950
Li       4.31903108       4.01031293       3.42802303      -1.74302805       0.09242493       1.05953136
Li       8.21275734       9.57963577       4.84989393       1.55009031      -0.70765838       0.02988209
Li       2.68977069       2.35483821      20.96730480      -1.10036407       0.14014587      -0.32871843
Li      -2.39210646       5.27920408      17.38102419      -0.31841570       0.18524539       0.26092972
Li      -3.25229752      15.09043607       9.74987281      -0.56921176      -1.22056798      -0.31312714
Li      -1.20675770       2.57730682      23.24932849       0.95358414      -0.56935049      -0.67229895
Li       5.70572492      -0.87216792      18.70401489      -0.59246527      -0.13516008       0.24149279
Li       1.50840576      -0.28526788      12.80028408      -1.18623462       0.61438624      -0.16984169
Li       2.56836032       0.98224090      23.56641283      -0.39800983       0.50818257       0.64045326
Li      -0.73284245       3.08932373      18.08548495       0.16609227       0.03507420      -0.02811305
Li       2.90900730       4.24286091      13.08374313       0.03909365      -0.44928689       0.09075704
Li       4.69705083       0.13807578      15.49858090      -0.81092619       0.07127821       1.24343926
Li       5.03736901       4.26836807      20.60574560       0.33753789       0.19408989       0.19013605
Li      -1.39198305       0.22750887      10.44761015       0.35785576       0.33391978       0.26880104
Li       5.10256905       1.44043762      22.52373357       0.37117294       0.72146403      -0.00449273
Li      -5.27591919      14.45665485      12.31209321       0.21085696       0.92570771       1.13969217
Li       1.70009839       3.73795507      16.92899523       0.27377159      -0.63761373       1.08164405
Li       3.08663762      -0.03088805      18.03611526       0.14173756      -0.28566069      -0.54479371
Li       1.69227617       3.46112627      23.55237283      -0.07751988       0.09920638      -0.40656847
Li       7.72690097       0.27293370      12.64771278      -0.30211064       0.11362560      -0.23867782
P        0.48555722       1.15120470      15.42820155      -0.58420457      -2.05149937       0.87331271
P       -0.12099996       5.39461763      22.13508429      -1.26227270       0.78659930      -0.26320377
P        4.35833723       2.76038925      10.40808621      -1.36639571       0.90192007       1.62958721
S       -1.17879012       2.32875445      15.23993114      -0.67569056      -0.26889172       0.25521693
S       -1.23416504       6.76988321      21.03936716       0.23546475       1.83786502       0.42228090
S        2.83670881       4.51140114       8.55784453      -1.10151486       3.99028157      -2.22172179
S        2.02530015       2.03998802      14.11987051       0.17368834      -0.71132749       0.76912159
S        1.90670552       6.42460886      21.81501763      -0.76375291       1.38084973      -1.37585830
S        6.55910110       4.26746439       7.68022555       1.61173347       2.54523362      -0.31194596
S       -5.23502964      12.44066568      15.91821973       2.94020311      -0.35181015       2.95969503
S        0.37704305       3.49585702      21.31211076       0.88009419       1.04049394       1.41354246
S        4.30676354       0.83616541       6.89635314      -0.95375281       0.42345607       0.21431344
S        1.01815507       1.35370530      17.41192753      -0.75714737       0.21821617      -0.00573016
S       -0.16157387       5.39466185      24.16871150      -0.62578840       0.35752233      -1.56630135
S        4.54335205       2.58674648      12.41903326      -0.85966141      -0.07954599       2.02647875
S        3.85936550       3.23829389      23.03357640      -2.04533353       0.23226049      -1.29514590
S       -6.39826226      12.64930776      11.24617320       2.10682828      -1.88837919       0.22795324
S        0.09165254       5.28490837      17.49890492       1.34611886      -0.21402569       1.98792845
Cl       0.45074880       1.84160831      24.46273112       2.32562223       0.48493585      -0.10679535
Cl       3.59011772       3.90720962      18.78920269       1.87771633       0.72584124      -0.80946620
Cl       1.04880833       5.33870572      11.99413233      -0.88900685      -0.84941170       0.14145385
Li       9.29949302       2.15025236      21.48114687       0.23293127      -0.40309845       0.11861539
Li       5.62569444       4.77912495      17.13152474       0.21143997       0.50374887      -0.21109394
Li       7.38288104      12.83720819      13.72715344       0.48092290      -1.00728373       0.11321328
Li       5.93139167       3.35532897      24.11617874       0.49968899      -0.75348429      -1.12601154
Li       6.23676595      12.21975480      18.32309483      -0.88060709      -0.39872113       0.56629272
Li      10.09373649       2.37973770      12.39837710      -0.49727807      -0.15924151      -0.23491888
Li       9.86730730       1.28932142      24.47944339       1.01393143       0.01071860       0.59578687
Li       8.48099814       3.32966551      17.85719991      -0.31662925      -0.24210382      -0.44346064
Li      12.26498711       7.78376010      12.84371373       0.24974463      -0.24749532       0.06095694
Li      10.62270586      -1.12527949      15.29144885       1.37143194       0.65321960       0.77709321
Li      10.79907143       5.22431307      21.84792440      -0.27925207      -0.33764955      -0.40477247
Li       6.95872264       3.10484606      12.62698515       0.37124038       0.07797069      -0.13913334
Li      11.90384379       2.68279549      20.82651584       0.63607190       0.33263625      -0.19923428
Li       1.04446272      11.98408228      12.43996716       0.11375866       1.67762227       0.06356269
Li      10.74437267       3.55826862      16.36616925       0.24348947       0.04550906       0.59588686
Li      10.34114383      -0.31450644      18.34624296      -0.34882991       0.11555070      -0.64670800
Li       8.28484573       3.52275157      23.26697229       0.07344552       0.71489395       1.16607367
Li       0.02161072       2.29700340      12.74578149       0.85127300      -0.65162437      -0.49174398
P        8.26416693       1.05598804      15.53182460      -0.44031238      -1.26602667       0.78862281
P        7.39470135       5.61469850      21.81559840       0.54113335       0.13460072       1.53210032
P       12.26759108       3.47587984       8.54486673       0.12759837       0.95230942      -1.67180078
S        6.54874985       1.87372664      14.67306657      -0.37656848      -1.38475707      -1.61623596
S        5.63478066       6.47333671      21.03542499       0.48587167      -1.72530027       0.24764046
S       10.25693490       4.69028639       8.37002556      -1.40036586       1.85301738       0.12363736
S        9.61840684       2.27029050      14.63329910      -0.95693234       0.65261279       0.48204889
S        9.04005889       6.59047574      21.03751780      -1.05357136       1.37071428       0.09495214
S       -0.77611773       2.84298342       5.53933181      -0.76431988      -0.03398956      -0.72942625
S        1.47537184      11.87586804      14.66134245      -0.37043912       2.51305317       0.90627870
S        7.43626789       3.54768909      21.23702641      -0.74357132      -0.43494350       0.85537473
S       11.60423291      -0.00773858       7.24017848       0.68412597       1.30498803      -0.96914176
S        8.29345745       0.94480356      17.61683576      -0.08401839      -0.46262033      -2.28248808
S        7.28333281       5.68162845      23.91951489      -0.06308180      -1.73895701      -2.38667905
S       12.04436422       2.70294095      10.63101111       0.23111569      -1.30681677      -0.01380017
S       10.76198916       3.23444997      23.38733713      -3.11954731       0.62864484       0.02919232
S        8.28026524       1.44598633      10.65397617       0.97092551      -1.16889896       0.63638331
S        7.89400769       5.46467580      17.34510904       0.31897420       1.17306831       0.84467038
Cl       7.45852346       1.55542381      24.18053113      -1.10286603      -1.76487393      -0.48955700
Cl      10.94270948       3.24715252      18.70315573       0.29303790       0.58940906       2.03320006
Cl       8.39440768       5.02401826      12.84164429       1.07357196       1.13892018       0.13225518
Li      -1.83829722       9.56021855      20.65512174       0.62963469       0.58883379       1.24902300
Li      -5.63584562      10.96472834      20.16839787      -1.10471090      -0.20941717       0.31765073
Li       2.37796730       7.26937070      11.59284101       0.04113350      -0.16082083      -0.10573929
Li      -4.83768597       9.57855188      23.75677730       0.37310647       0.30507840      -0.29835348
Li       1.24362244       4.91930210      19.58178652      -0.07370968       0.11915622       0.06388836
Li      -1.20209645       8.57385300      12.19332641       0.92475418      -0.11193404      -0.07153664
Li      -2.97647948       6.92713026      23.04090660       0.17515803       0.99619263      -0.43120743
Li      -5.16619415       9.17079077      17.16702349       0.24055935       0.12761257       0.15787205
Li      -0.84358689      14.58395576      12.39938072      -1.00313860      -0.38157036      -1.58866473
Li       0.30051995       6.83553573      15.77554663       0.37987177       0.18751845       0.48266750
Li       0.53112460      11.29658649      21.00837207       0.51376371       0.13826420       0.71867334
Li      -4.22859138      11.93642895      13.65078091       0.56163920      -0.68740370      -0.45423909
Li       0.91026273       8.57481301      21.48856102      -0.92459400       0.32256140      -0.31131283
Li      -1.15666432       5.14261631      11.03659150       0.06592785       0.12941086       0.24564840
Li      -0.43797679      10.50035272      14.93431988       0.52819000       1.27384163       0.53244263
Li      -0.97599859       7.42908938      18.79587270      -0.78288637      -0.57304018       0.41143216
Li      -1.84861956      11.41688026      23.83408409      -0.57751080       0.46581709      -0.82254265
Li       4.85271589      11.51906540      15.46941397       0.37373970       0.00465654      -0.26778319
P       -3.14494322       7.37442338      15.40350043       0.67786340       1.34978277      -0.69214133
P       -3.49179201      12.38883018      21.88862839       1.02045370      -0.51139154      -1.20775634
P        0.89586866       9.17720797      10.10249628       2.63843579      -1.35234180      -1.22436418
S       -4.75159258       8.57507189      14.75410899       0.97134030       0.75302134      -0.37290107
S        3.13048998      -0.76398251      21.71826477       0.18453805      -2.61313086       2.47127896
S       -0.76317260      10.34032942       9.07800102       0.11233727       0.10544103       0.83574387
S       -1.33734154       8.08740175      14.59042274      -1.37682212       0.35282733       0.25205476
S        4.16445415       0.40737382      20.29262589       0.26468580       1.66961673       0.08772009
S        2.57500515      11.00145767       6.37280367      -2.41256576      -1.08400844      -0.25782369
S       -3.46289967       5.41222514      15.07698320       0.35564357      -0.11769087      -0.61189224
S       -3.64857340      10.20640191      21.48400357       0.31565300       0.70500196      -0.02181916
S        0.57173790       7.31768715       6.44684304      -3.62967700      -0.19984788      -3.72716861
S       -3.22917345       7.46216621      17.56112792       0.57330198       1.14705900      -1.91537942
S       -3.85796552      12.81999693      23.84706578      -1.27957868       0.04006450       1.07286930
S        1.15820778       9.66809939      12.04763307       0.19089597      -0.66996334      -1.57865950
S        0.40508142       9.66689148      23.46699114      -0.16972028      -0.31173818       0.94981877
S       -2.44884835       7.00760520      10.81754714      -0.20623179      -0.10418485       1.30712818
S       -4.12772829      11.67653310      17.42940512       1.04266994       1.61264144      -1.80794313
Cl      -3.09025567       8.52095911      24.73195680      -1.33568538       0.16068920      -1.50634750
Cl       0.13968992       9.48060681      19.44519124      -1.44195633      -0.90723029       0.07429487
Cl      -2.42493663      10.60376358      11.93435905      -1.19894207      -0.94976487       1.28762842
Li       6.08883665       9.34019650      21.00989534       0.11490063      -0.44083238      -0.35342791
Li       1.93311227      12.58398228      16.78346292      -0.29289063       0.29575333       0.75805518
Li       9.78907065       5.79357972      11.15796102      -1.10082390       0.52508047       0.85925018
Li       2.61986616      10.07992959      23.94948287      -0.55820699       0.27870308       0.70714406
Li      10.18478210       5.72504102      18.84288592       0.22546614      -1.41501053      -0.38429584
Li       9.64975054       9.44730066      13.16626166       1.00875765       0.38576147       0.36081450
Li       6.38842753       7.77181621      23.23324457      -0.36635401      -0.36227908       0.21666398
Li       2.73691933       9.34298925      17.77212502       0.29541063       0.03593568       0.93217257
Li       9.38594118      11.18635050      15.07743615      -0.58763420      -0.70537821      -0.18496399
Li       8.94311290       5.84643699      15.26157306       0.18560891      -0.05066812       0.01776920
Li       7.76303086      11.78898821      21.82453861       0.27605193      -0.11778712       0.02639569
Li       2.92305780      10.25626788      13.81628756       0.20308317      -1.08595777      -0.61279471
Li       8.99914766       9.29556837      20.90574029      -0.46891962      -0.46479230      -1.60008722
Li       5.59571052       7.21425262      13.13578844      -0.35902466      -0.45086111      -0.38541540
Li       5.51227448       9.84905031      17.66579511       0.81883453       0.46612753       0.34013624
Li       7.01630812       7.61388777      17.81367603      -0.35309809       0.01820521      -0.41939554
Li       5.15574191      10.17812527      23.62263466       0.66108452       0.23795500       0.55836218
Li      -4.90826220       7.67986903      12.67651144       0.45520764      -0.20515615      -0.19600539
P        4.28073872       7.59628183      15.38368542      -0.51363102       0.82154864      -1.38512750
P        3.69680295      12.03874209      21.50665043      -1.57928366       1.08694141      -2.30014704
P        9.20080219       8.92902098       8.79492740      -1.23110350      -1.53786647      -1.60730846
S        2.29288952       8.23183882      15.04284739       0.42112759      -0.67270783       0.07590602
S        9.75054038       0.17087041      20.54190293      -0.41874874       0.54497620      -2.51112506
S        6.63686963      10.21103343       6.73469609      -0.40234330       0.79146925      -3.05152995
S        5.60053619       8.90889277      14.48718949      -0.05233089      -0.86550910      -0.91107151
S       11.50367897      -0.09216118      21.47714448      -1.83281174      -0.25980564      -0.70300450
S       -4.39712339      10.46448361       8.10116591      -0.43355606      -0.49555277       2.11888232
S        4.93940538       5.69729564      14.60954916      -0.26771799       0.98984435       1.40866348
S        3.78594574       9.94356379      21.33257577       1.77292712       0.09424470      -0.46666142
S        9.79283961       7.89204432       6.82870550      -0.01281115       0.07793254       0.47810708
S        4.62630065       7.52661608      17.53357371      -0.20707787       0.82682780      -0.88467950
S        3.25945883      12.57064293      23.62215436      -1.30906149      -0.26314620      -0.65758871
S        8.47269714       7.68743242      10.46181235      -1.10330793      -2.90433025       2.20236541
S        7.52807714       9.66336781      23.21260252       1.38845391       1.98322642      -0.70973167
S        4.64469480       7.47329969      10.17172073      -0.24986246      -0.05092755       1.64493301
S        3.85245999      11.50624704      17.45294820      -0.52902652       0.34140617       0.14778704
Cl       4.12947317       7.98080557      24.32473505       0.40769885      -2.00584863       0.50579762
Cl       7.30400484       9.48470297      19.20840583      -1.01202438       0.16338023       1.50556475
Cl       4.41553428      11.55470207      12.22031094      -0.07656206      -1.66529721       1.29968720
S       10.43105058      10.59793008       8.92599890       1.32581774      -0.88080841      -0.13622362
S        0.88039000       0.26305472      10.57198171       3.44928264       0.76868350       0.98326535
S        0.87923405      13.43483290      10.61917300      -0.81302589      -0.78267223      -1.98823346
S       -2.74465434      -0.22853800       8.24252781       1.04364245       0.74403664      -0.78950215
S       -9.60921883      10.43128877       9.33053688      -0.69651128       1.86216577       0.32781151
S       -7.80768740      13.39981630       7.31430237       0.47778709      -2.78391804      -1.69938945
S       14.03718450       4.42976283       8.55935310       0.54378899      -0.21840416      -0.48516009
S       -1.99322625      14.17749439       7.77042177      -0.07210866       0.46397913      -0.53565785
S        4.86953471      13.63437024       8.86765813      -1.48070440      -1.96077342      -0.23912594
S       -4.79275590       3.28324158       9.87207663      -0.11228591       2.11924756      -1.15847067
S       -3.83153992       5.92232829       6.96428617       1.17739256       0.22924310       2.59825072
Cl      -2.65860456       3.41815806      18.88771854       0.43956185      -1.31950125      -2.38636882
S       -2.98429529      13.98886903      11.65483165       0.69353998       0.01327702       1.23412305
S       -2.85770293       4.24383485      23.45099351       1.57556441       0.59097636       0.62715156
S        4.48859186      -1.43231927      16.97211771      -1.87549336       0.53131766       0.85218472
S        4.22676094      -0.91769378      23.29128372       1.40036687      -0.56938490       1.21184682
S       -2.03065931       2.74262248      11.54356700       0.93677365       0.46572323      -2.46766511
S        0.40670103      -0.74612152      14.76412620      -2.17471825      -1.40228122       0.60592274
S        5.62433847      12.66651799      20.87580296       0.84239833       0.64039030      -1.25411363
S        8.23483042      13.23426405      17.08211970      -0.10744228      -0.21877178       0.37318425
S       10.86484653      -0.57027990      23.44314036      -0.30335367      -1.38955538       0.14325915
S       11.96365583       6.91665882      10.97140584      -0.80199642      -0.04411495      -1.84219458
S       11.54583177       6.04971508      15.29470343      -1.82018425       1.13843064      -0.69852287
S       12.35241557      -0.73709234      16.99102738      -1.85682444      -0.12005232      -0.39305204
S       11.80954996       0.73968112      15.61674898      -0.09751818      -1.45003174       0.33101591
S       12.45401792       5.97786905      20.46052988      -1.52432486       2.30139620      -0.13675219
S       13.65119776       4.46096733      20.66491716       2.23729955      -2.51471443      -0.40320504
S        8.29031798      -0.81414610      14.63250092       0.76913485       1.03603296       1.07294760
Cl      -6.83043343       9.26000151      18.99987816       0.70325843      -2.11613701       0.99505361
S       -6.57972292      14.14625214      16.28655109       1.07789314       0.53641687      -2.94260020
S       -4.89136091      13.37578434      20.80875930       0.65337727      -1.17280729      -0.35081105
S       -6.77856012      10.29212133      22.97176000       0.85788391      -0.52163393       0.59132281
S       -1.40439328      12.48588797      21.76136730      -0.54834650       0.04386687      -1.61355286
S        2.31909638      12.68633889      20.20632917       1.83129883      -0.23667711       0.13976891
S       -6.94220862       7.84048000      11.02177758      -1.12850963      -2.76617939       0.86550887
S       11.38273756       8.15861578      15.42327023       1.30555489      -1.66784890       0.44654713
S        9.16356750       8.45002049      15.18824594       1.42161084       1.17043972      -0.87898580
S        9.08034311      11.59682384      12.72012684       1.89081544      -1.47355710       0.22435852
S        7.19289491      12.04292363      15.92069352      -1.78497086      -1.60572078      -1.86630831
S        9.80020863      12.32085542      21.21079079      -1.34664410       2.12432902      -0.15199195
S       10.99265467      10.58082719      21.21837642       2.82499538      -2.27983664       1.84009975
Li      -6.85826875      11.14099911       8.52276105       0.43458920      -0.32060579       0.66862525
Li      -2.28349344      15.86709195       6.11201901       0.14980798       1.54396031      -0.74514945
Li      -7.88935480      14.31412490       9.24308484       0.47092826      -0.07332188       0.25936956
Li      13.28046518       1.00824939       8.96132783      -0.02027320      -1.27612696       1.45583425
Li       5.54489455      16.01660063       8.78779513       0.05116875       0.92754047      -0.17481644
Li       8.87105076      11.39443779      10.52131232       0.01629688      -0.78327576       0.45953471
Li      -4.38134336       0.76495278       9.64181890       0.60320502       0.32198640      -0.53941833
Li      -5.38165271       4.47886211       8.06367496       0.27494614      -0.88568808      -0.25668248
Li      -1.64509505      -1.98728449       7.18947536       0.04709660       0.45379207      -0.42806287
Li     -10.16485102      12.25175318       8.15256683       0.05890658       0.15488523      -0.51406669
Li      11.02636473      -1.85342426       8.38915547      -0.87351991       0.88042854      -0.43576029
Li     -10.40070826      10.74707740      11.42701156       0.31813292       0.79367880      -0.50112257
Li      -8.71758495       8.57815017       8.79814117      -0.97947959       0.58681524       1.34192649
Li      13.55283963       5.18062832      10.86130217       0.08975071       0.19423181      -0.05857344
Li      -3.44511706       4.89225512      12.75077982      -0.35134882      -0.19428814      -0.64766249
P       -2.53923434       3.30843697       9.59071932       0.19619522       3.32174353       0.41525656
Li      -4.91938384       6.12385303      10.15162441      -1.10955596      -0.57629258      -0.59848496
P       -6.20738238       8.58556605       9.28259006       1.55565754      -0.60008283       0.74937848
