279
Properties=species:S:1:pos:R:3:momenta:R:3 LayerForceGeomOptConstraint=T E_ref=-1043.8984829249819 step=600 pbc="F F F"
Li       3.18278160      14.46165357      21.96072446      -0.18364597       0.52787643      -0.02383793
Li       7.80438033      11.72337509       7.09672255      -0.51818937      -0.44478191      -0.24505414
Li       3.32765321       1.26704947      11.61510738       0.17691435      -0.16748682       0.17450650
Li       3.80932306       5.89213533      22.70320460      -0.17491998       0.35125512      -0.31721416
Li      -0.00612122       5.03000850       7.16269461      -0.00523202       0.42617814       0.28663363
Li       6.36837569       2.54125883      10.39382650      -0.73149593      -0.01800936      -0.76365961
Li      10.38521919       1.74272970       7.85986890       0.11753239      -0.15610879       0.39186670
Li       2.57065373       5.52068452      10.51049372      -0.05940044      -0.29261423       0.02853668
Li      -1.58338208       1.02600219       6.03144967      -0.97650241       0.78787268       0.80470939
Li       5.65635387       0.18850921       7.81767140      -0.81834068       1.03470111      -0.22283102
Li       3.41137161      12.38419088      10.74055380      -0.04312777      -0.08407147      -0.35239748
Li      -0.31243447       4.72642390       4.27569056       0.95734255       0.55395368       0.19553209
Li       3.72390706       0.41552659       4.51976379       0.59004521       0.50993912       1.67339418
Li       2.63323318       0.42565507       8.90840050       0.54328596       1.22276855       0.31108225
Li      -2.96245217      10.61164654       5.13258093      -0.05562216       0.07656942       1.03331386
Li       1.18587230       1.68404861       6.39397526      -0.23043197      -0.57697069       0.76826548
Li      -5.38990899      12.49334269      23.01698722       0.49420433      -0.44613102      -0.57909068
Li       0.18638211      14.22810509       9.01282443      -0.44279939      -1.16189631       0.14897550
Li       6.38975372      -0.52698989      11.38265199      -0.15405808       0.28028986       1.04123437
Li      12.98144406       4.28206219      22.62525854      -0.45576297       0.39051690      -1.32941630
Li       8.55383477       3.55729719       9.77335008      -0.77792405       0.29298427       0.89990890
Li      -1.90718539       2.85190615       7.94677792      -0.43472780      -0.19313914      -0.49413928
Li      -5.98808413      11.05781676       6.43961004       0.01366562       0.78472920      -0.19742190
Li      10.86039182       5.48602636       6.88333326      -0.10716439      -0.01593637      -0.28655120
Li       6.80268633       2.55404320       6.85786045      -0.66866891      -0.15575480       0.50429159
Li      11.90273044      -1.73052510       7.09264893      -0.93356191      -0.24445961       0.30875867
Li      -7.18782435      10.28059999      11.69524534      -0.08419440       0.51536008      -0.15080016
Li       4.52784643       3.60364339       8.22881723      -0.03473991      -0.11726968       0.23742522
Li      13.89265399       2.12859027       7.51241850       0.32127572       0.26989066       0.26565773
Li      10.46180514       1.06468695      10.53748800       0.37308517       1.01695895      -0.10857345
Li      -1.93597830      11.17401756       8.38787409      -1.06441958      -0.90509263      -0.34381901
Li       7.17817044       5.12348515       6.27069749       0.72547072      -0.41886770       0.82431213
Li      10.92651155       6.16674703      22.73626022      -0.28072652      -0.13558295      -0.11461706
Li      10.60413938       8.22353053       9.82968066      -0.22297370       0.38533406       0.39272156
Li      -4.16913690       8.83431948      10.89613537      -0.25107485       0.26501136       1.01410931
Li      -1.70729273       8.72480372      22.42890580       0.67013787      -0.68856354      -0.95633263
Li      -0.65299458      11.64861794      11.29462721       0.51821826      -0.50164723       0.12315052
Li       2.96527503       7.38583712       8.95639325      -0.17279250       0.53226500       0.51217142
Li       1.98562330       6.81912648       6.11991294      -0.56064777       0.00953401       0.76384180
Li       0.92887317       9.60655528       6.85148261      -0.18668362       0.24726262      -0.01811353
Li      -4.43138453      12.62856885       7.23161027      -0.01991385       0.62807589       0.17226154
Li      -1.41853080       7.75573189       3.33563629       0.20074454      -1.30036680       0.11085866
Li       5.10844582       5.92830694       9.52298113      -0.15818788       0.02040542       0.81956304
Li      -3.39141361      12.25781580      11.55029100       0.03981877       0.79959511       0.24338369
Li       2.50202770      11.25597887       8.39347660      -0.40469848      -0.19547304       1.28270880
Li      -1.31720859       8.77666187      10.57311148      -0.01738301      -0.50112689      -0.01694493
Li      -3.08244852       4.25619665       5.43406619       0.57843127       0.09737288       0.35093561
Li       0.41902098      13.07654214       5.97692510      -0.62090593      -0.01448341      -0.20825699
Li       1.21789000       7.54367595      23.70966724      -0.25858769      -0.62356941      -0.06182679
Li       1.53949156       2.98683768       9.58860002      -0.63654908       0.98064753      -0.31916219
Li       3.59538141       9.55027003      12.67906691       0.17606513       0.17645597      -0.01038597
Li       9.12609132      10.54337135      23.54945833      -0.09066769      -0.29920105      -0.49442914
Li       5.43131571      10.72829380       9.12804186      -0.30694699      -0.40060592       0.23814566
Li      -4.55111717       7.80508740       7.24541949      -0.11491573       0.44905549       0.52054202
Li      -1.41161277       7.76487748       6.70814216       0.64352487      -0.37122188       0.77678785
Li       4.06181714       9.97913891       5.53788709      -0.45724588      -0.02560619      -0.15500234
Li       1.02051974       9.70436370       4.16219489       0.07859469       0.17594618       0.11930257
Li       8.10925608       6.62209873       8.34278814      -0.42759964       0.40783793      -0.22689337
Li      -2.29441564       6.50496353       9.26094718      -0.18889028      -0.58950306       0.53495446
Li       4.57297904      12.17394846       6.64032963       0.02519353       0.08924671      -0.16592194
Li       7.10704095       8.47925920       6.30501891       0.32894335       0.34295788      -0.27239280
Li       6.43268368       8.13379525      12.11351616       0.98895041      -0.62945534       0.07681826
Li       3.00754045       3.77331408       6.23180363       0.15377216       0.90303207       0.61420943
Li      10.17361977       8.79947608       6.82668729       0.46436784      -0.20621576       0.32889927
Li       2.91837872       2.42230108      20.76751628      -0.56381125      -1.08085850       0.31805229
Li      -3.90683888       5.63199452      17.22980757       0.83410331       0.78030815      -0.18105659
Li      -2.29029046      14.12126094       9.59390779      -0.35510156      -0.52709499      -0.37662630
Li      -1.12249553       2.82132498      23.22132286      -0.18054447      -1.01426331       0.23030803
Li       5.51192115      -0.17452462      18.50829962       0.15781647       0.18981711      -0.16097730
Li       1.57858843      -0.37337021      12.81364882      -0.34656798      -0.05866422      -0.23626025
Li       2.77722818       1.34686972      23.76669230      -0.11690884      -0.70055955      -0.52071977
Li      -1.28164574       3.99857423      17.17044243      -0.23437874       0.26298810       0.20395703
Li       2.97654315       3.89782708      13.83537834      -1.11693648       0.26290735      -0.47748172
Li       3.83793446       0.02994850      15.53345381       0.09369689      -0.21511942       0.23351314
Li       4.76957873       3.94364854      20.80001621       0.39524417      -0.65151486       0.49684309
Li      -0.99697052       1.21347476      10.11940619      -0.52582230       1.31054457      -0.44801052
Li       5.28636402       0.88996878      23.02708822      -0.46673752       0.26660105       0.66166625
Li      -4.90513732      14.03252306      12.41765228       0.04327629       0.44575365      -0.69099927
Li       1.58510899       3.46399468      18.29104641      -0.73573615       0.48507020      -0.45566022
Li       2.51971875      -0.18267545      18.20433063       0.20979084      -0.50610986      -0.27228724
Li       1.37721451       3.90540905      23.26008319      -0.50570137       0.34454751      -0.52103013
Li       8.50948772       0.55816275      12.78058413       0.92131507       0.38436808       0.31747360
P        0.78053996       1.09816262      15.58880715      -0.03730663      -0.43046010       2.18771491
P        0.03165533       5.46861889      21.35796813       0.28585831      -0.20961341      -0.01334677
P        4.05649574       3.73232065      10.59112662       0.21166121      -1.67996125      -0.02573371
S       -0.69905134       2.56534284      14.94775924       0.96510775      -0.60112086      -0.33197334
S       -1.54724617       6.56608446      20.52619695      -0.01917012       1.05052576      -0.79563055
S        2.43818565       5.33189432       7.90048713       0.66872617       0.58935363       0.61950447
S        2.38932753       1.70164691      14.43230673       1.86894675      -1.11315391       0.21519452
S        1.86471462       6.42536299      21.10004721      -1.26047458       0.62587261       1.00663285
S        6.78561382       4.20905737       8.33801307       0.21645551      -0.15887131       0.55512308
S       -5.45288541      12.26524874      16.01646732       0.81997944       1.91623148       0.51093478
S        0.07077618       3.47530667      21.05323274      -0.24622522      -0.50398170       0.21328019
S        3.70193883       1.42061949       6.85502325      -1.30648688       0.50436868       1.56232119
S        0.78752507       1.32139736      17.62421043      -0.86052354       1.05940783      -0.29772842
S       -0.36259694       5.65896267      23.52173513       1.78134490      -1.15340731      -1.35858347
S        4.97993347       3.03070780      12.39957423       0.18676647      -0.52129087      -0.06449623
S        3.79120755       3.41632485      22.91645528      -0.66322452       1.29584749       1.53425041
S       -5.57129334      11.86522490      11.24132725       0.53673985      -2.11636525      -1.07216080
S        0.55655852       5.37431552      17.53649036      -0.02150318      -0.35789522      -1.88745448
Cl       0.67421363       2.12827000      24.47682578      -1.35222948       1.22484622      -0.54272326
Cl       3.92736609       3.69699505      18.70359643      -2.98945394      -1.99757675      -1.11695931
Cl       1.14978867       5.29991811      12.74022699      -0.99340799       1.28057938      -1.32935064
Li       8.75494483       1.29043782      22.38321797       0.38079973       0.24415074       0.74949538
Li       5.53842436       5.17256807      17.72408362       0.31753111       0.56082691      -0.38982418
Li       8.56371529      13.00314584      13.92489713       0.50322707       0.07773433       0.55270413
Li       5.89264938       3.87056877      23.74887274       0.58009489       0.42797765      -0.96701319
Li       5.74495916      12.32800010      18.46030760      -0.44789726      -0.13835736      -0.94409177
Li      10.52317340       3.54803487      12.87468409       0.05286097       0.49847939       0.22950459
Li      11.82504300       1.67038682      23.87012965       0.13938894       0.18395335      -0.05037353
Li       8.16166448       3.24042918      17.66957002      -0.28911811       0.52148422      -0.35742541
Li      12.93887847       7.04417679      13.69918719      -0.24214779      -0.34166530       0.62640050
Li      10.75075638       0.36457932      14.95419762       0.89666963       0.43671144      -0.46541552
Li       9.95384231       4.34777807      20.87294939       0.43342780       0.08147670      -0.41392152
Li       6.75038065       3.45291940      14.16968100      -0.18931604       0.18749622       0.11116489
Li      12.20284406       2.39702095      20.65305496       0.40332016      -0.49852285      -0.40241868
Li       1.52014604      11.66960255      12.80001209      -0.03483089       0.11240346      -0.28042072
Li      11.37137151       3.31283388      16.29870327       0.14685098      -0.11540183      -0.28493486
Li      10.17231437       0.32837745      17.95050751       0.97641270       0.32415259      -0.58402680
Li       8.70269187       3.76304961      23.81474637       0.53844893       0.22580091       0.07821165
Li       0.53517996       2.48501970      12.77248672       0.16450836       0.05344858       0.71268758
P        7.80205510       0.75384461      15.38099130      -0.18381868      -1.95501430      -1.83078645
P        7.35481827       5.70771196      21.54159379       1.67789946      -0.34370745      -0.19062014
P       12.24828662       3.20422011       9.08455240       0.30204913      -0.40616392      -0.94887730
S        6.10211576       1.07826481      14.33944588       0.93861314      -1.46851142       0.72967841
S        5.65671925       6.56829560      20.90894456      -2.21299053      -2.11289310      -1.42592279
S       10.23354642       4.05885925       8.45900092      -1.13012393      -1.86990368      -0.49846400
S        9.18573794       2.20223014      14.86813361      -1.12919179       0.43122153      -0.41571341
S        9.25228129       6.68447848      20.81778939      -0.10410714      -2.52620830      -0.62565644
S       -0.56487367       3.14972940       5.90049847       1.98865049      -1.10646604       0.87018071
S        0.29830363      12.43359290      14.99796406      -2.53207815      -0.36457440       0.11088965
S        7.39219234       3.70788045      20.95690440      -1.20532800       0.78769566      -0.15507868
S       11.59840681      -0.17016100       8.83386148      -0.53132560       0.71196707       2.38650421
S        7.68048352       0.81902938      17.37723548      -0.69877787       1.12528026       0.81445047
S        7.48392295       5.91696015      23.51579006       0.55246664       1.73929579      -0.13203034
S       12.22877122       2.80855106      11.28947421       0.25290262       1.50557541      -0.44862887
S       10.93438509       3.54196501      23.02377186       0.77126389      -0.81266119      -1.48306441
S        8.06847944       1.10054680      10.31318911      -1.02972798      -0.45371553       0.66785850
S        7.81689306       5.45808374      17.25425862      -0.39001813      -1.64486671       0.40614936
Cl       7.17988701       2.01640545      24.21960817       0.62390509       0.11840424      -0.34707998
Cl      10.45535370       3.51709572      18.54077110       0.14269254      -0.54945450       1.01671951
Cl       8.53926678       4.42004348      12.05246494      -0.40716541       0.36194008      -1.06352575
Li      -1.26673270      11.08624744      19.64870164       0.64734510       0.45073774      -0.08342782
Li      -5.74387446      10.68931722      20.80304830      -0.29378935      -0.45900334      -0.60079692
Li       2.24169869       7.37331022      12.34321336      -0.11195134       0.45699032      -0.25007343
Li      -4.95492072       9.83224622      23.54257040      -0.60931347       0.69488690      -0.44235946
Li       2.28115663       6.19329030      18.68627352      -0.34344765      -0.46441909      -0.50969310
Li      -2.13258532       8.01721314      13.20919049       0.23371085       0.46236076      -0.12242337
Li      -3.60340993       6.19925320      22.15925404      -0.63213954       0.83438246       0.63792572
Li      -4.67066361       9.84503811      17.44928126      -0.28765588       0.04086137       0.06554897
Li      -0.41577645      13.90681917      13.15047572      -0.65370610       0.53941813      -0.29470119
Li       0.26185093       6.59486763      15.37543638      -0.70786992      -0.39693560      -1.25935465
Li       1.05906698      11.51977554      22.04233039      -0.44115825      -0.36395514       0.15077922
Li      -5.23074936      11.52351981      13.61836987      -0.70633842       0.39754586      -0.35589375
Li       1.09628047       8.78180142      20.86928366       0.47704505       0.59299031      -0.06788590
Li      -1.19722496       5.29958171      12.05533167      -0.46030526      -0.29887749      -0.36848669
Li      -1.38883725      11.15134509      15.58005019      -0.21358617       0.40198805       0.07370041
Li      -0.44666829       7.32801439      18.10184943       1.09636842      -0.44116101       0.71002535
Li      -0.93522990      11.67488125      23.78441778       0.54854909      -0.22007660      -0.67304616
Li       5.01682666      12.27666131      14.95843968      -0.15861242      -0.32336735       0.59468693
P       -2.93361116       7.87991882      15.71730542       0.05218150      -1.30315289      -0.13969346
P       -3.07385665      12.16405288      21.75286777       1.30189750      -0.88978256       2.20060013
P        1.21688687       9.24282067       9.46208332       0.87702661      -1.17820751       0.15400416
S       -4.64311690       8.86160070      14.92964873      -1.90524861       0.52385113      -0.94912918
S        3.48670918      -1.16023970      21.87363083      -0.80106312       2.67624236      -2.04938398
S       -0.74219864       8.95509850       8.38772729       0.23893700      -1.70534252      -0.28832878
S       -1.11755121       8.72744048      15.29626578      -1.67949878      -1.11932406      -0.49804040
S        4.18003454       0.39292180      20.69414612       1.78562413      -0.19139793      -0.04261956
S        2.07431061      11.25701973       5.64384327       1.49356707       1.51468112       0.79826451
S       -3.00033297       5.82487126      14.92649304      -1.47680268       0.35033420      -0.95137575
S       -3.31027806      10.18403038      20.89899098      -1.16330506      -0.48361954      -1.54130290
S        0.04901975       7.34930841       4.89298226       0.21101623      -0.29754080       0.47909502
S       -3.08556391       7.82424099      17.71013464       0.08251103       1.29585541      -0.15727807
S       -3.20735959      11.98576210      23.79327734      -0.73779057      -0.95181109       0.89526568
S        0.83425703       9.23580006      11.51659504      -0.06879236      -0.88281547      -0.85238905
S        0.40254249       9.67551588      23.06976415      -0.85355932       0.10408353      -0.17050122
S       -3.06690564       6.90119460      11.55850517      -0.57369795       0.88610458       0.00485060
S       -3.41210203      11.80617886      16.64452287       0.02140114      -0.51258525      -1.58728912
Cl      -3.70312535       7.92466569      23.52428384      -0.17427806       0.61372851      -3.56320591
Cl       0.70196383       9.59748864      18.65516406      -0.56375005       1.17013264       0.69101325
Cl      -2.50465338      10.27044771      11.68685548      -0.03968272      -0.29825588       0.41601753
Li       5.71336318       9.05658262      21.07362625      -0.31530537      -0.04856411      -0.51894886
Li       2.04257144      12.59712299      17.00646771       0.56838641       1.42147636       0.17965197
Li      10.09270584       6.27059798      12.00903827      -1.20974004       0.90304088       0.87560610
Li       2.94122218       9.72896550      23.03939439       0.60006197       0.36417721      -0.09555851
Li      10.36043086       5.74552391      18.26949713       0.08578326       0.23296018       0.08619919
Li      10.81852273       8.95907270      12.81408383       0.55970408       0.17621939      -0.16531305
Li       6.05443832       7.90707872      23.91387044      -0.17563752      -0.35110490       0.20666364
Li       3.28553864      10.08007386      18.22578435       0.17029613      -0.29330394      -0.24498976
Li       9.38756061      10.29399750      14.81893951      -0.33327405      -0.35200757      -0.13073711
Li       8.98990603       5.87007453      15.34152932      -0.17765182      -0.11515870       0.65716340
Li       7.69071427      11.29110131      21.02626179       0.16748607      -0.81397995       0.06667417
Li       1.77979395      10.69412881      15.50731388      -0.02486589       0.56834201       1.27281100
Li       9.10458973       9.18961723      20.79812519      -0.52516382      -0.01542154       0.27825663
Li       4.85970035       5.61339476      12.44574519      -0.08230996      -0.46881164      -0.73236715
Li       5.84648962       9.89813650      16.63373447      -0.16849242      -0.24213293       0.55398869
Li       7.65710281       7.23995796      18.66556401       0.41416538      -0.38963583      -0.05509412
Li       5.74877801      11.66108154      23.48639402       0.05085913       0.31580011      -0.35726250
Li      -4.92474516       6.98389901      13.36897178      -0.03790128       0.37744750       0.03867941
P        4.09672125       7.62715665      15.29003044       0.06336654       0.68519900       0.15902809
P        3.72773828      12.13926582      21.26511708      -1.59227758      -1.60708263       0.59889275
P        7.66531803       9.31494036       9.06582344       0.12423488       2.83332277       1.34163601
S        2.27870622       8.40603617      14.63188155       1.03449376       0.50885662      -0.80190930
S        9.54807606       0.18816402      20.36339515      -1.08683415       1.51353872       1.95253582
S        5.88157090      10.64058013       6.54484581      -1.43241026      -0.91345237      -0.42300319
S        5.48716244       8.83213465      14.35212530       1.63152405       1.92574347       2.32436919
S       11.21775692      -0.22417705      21.54456843       0.93091415      -0.45764500       0.42302649
S       -4.08947913      10.20304551       7.23664221       0.37357442      -0.73123291      -1.23825133
S        4.29907735       5.63650738      14.82070366      -1.47197447      -0.83916617      -0.16145930
S        3.62661340       9.93046168      20.60273672      -0.57162889      -0.70164353       0.20007428
S        8.96434580       6.96419073       5.98171409       0.64732074      -0.37842723       0.53097092
S        4.31502813       7.67059113      17.32262580       0.20870997       1.20119449       0.59439461
S        3.24781672      12.12014126      23.26100843       0.69926325      -2.50791376       1.39598349
S        8.06095345       7.86697169      10.72814344      -0.68896119      -0.13358055       0.21087447
S        6.95505955       9.75292877      23.07382219      -1.47398403      -0.87795710      -0.70304573
S        4.16110862       7.58846976      10.98710752       1.04467331       0.98008035       1.35233109
S        4.13452557      11.81404818      16.96288008      -1.26095449       1.94144351      -0.74927203
Cl       3.71242885       7.74421661      24.19243426      -1.09633701       0.86649330      -0.81649399
Cl       7.07277440       9.59461480      19.18996487       0.75210364       1.89254398       1.84625691
Cl       3.93783807      11.84777324      12.85860713       0.36293093      -1.24949564       0.75052424
S        9.67900461      10.16083434       8.75934338      -1.55545034       0.85814602       0.48942082
S        1.23178364       0.93466182      10.75780905       0.20062869      -0.20588960      -0.54978916
S        1.14704576      12.95032620      10.61460797       1.82594073       0.09950793       0.69283152
S       -2.05153515       0.42658261       8.21397438       1.02620543       1.02634470      -0.90934287
S       -8.73486662      10.88687150      10.07626453      -0.90429734      -0.63690260       0.27704643
S       -6.56892448      13.07048930       7.68469559       2.71061271       1.89271275       0.49926137
S       13.45732504       4.73086789       8.17907528       1.70196091       0.77703170       1.05545198
S       -1.57854640      13.35042558       7.27305990       1.30013435      -0.05445852      -0.68219043
S        4.30015381      12.84995444       8.74698950       0.75988345       0.32242568       0.19085733
S       -4.65134820       3.66532738      10.15466225       1.01213471      -1.26987077       0.74376940
S       -3.39351571       6.00442080       7.00267325       1.49519510      -1.41859482       0.12708190
Cl      -3.21025221       3.72002415      18.00808121       0.08371929      -0.93420502      -0.26641426
S       -2.21697388      14.04050431      11.86350841       0.80073640       1.04096564       1.84278379
S       -2.19593370       4.69145713      23.76708720      -0.63609492       0.77071331      -0.61607152
S        4.15785000      -1.36985356      17.15548640      -0.04668598      -0.35881063       1.11785146
S        3.93191383      -0.62503678      23.86446989       0.96258160      -0.37769200      -0.86375233
S       -1.75971375       3.05060140      11.81472313       0.32173110      -0.20950143       0.03179307
S        0.45923519      -0.83754674      15.00302520       0.04806326      -1.28608491       0.51030128
S        5.41316160      13.14553886      20.89986462       1.18429252       0.61922555      -0.85059283
S        7.70437795      12.81803059      16.94476692      -0.72862710       0.12285720      -2.36018846
S       10.59864085      -0.25406570      23.51481947       0.73278331       1.08358919       0.02778131
S       12.15689344       7.62944090      11.38567074       0.04277695       0.40677691       0.37671454
S       11.36117623       5.19466980      14.65477599      -1.17751968      -0.83276708      -2.44398121
S       12.07433499      -0.77914765      16.73827004       0.42655849       0.25712204      -0.56420947
S       12.67913534       1.09570984      16.13193778      -0.50259041      -2.79650218      -0.19203016
S       12.47237422       5.71536558      20.69083357       0.07448075      -0.00006750      -1.86752590
S       13.74857057       4.10930240      20.40230213      -0.18016497       1.04544348       0.07481701
S        8.58838244      -0.98012075      14.69434905      -0.41587746       0.19302295      -0.79231153
Cl      -6.24870039       9.17395818      19.04911917       1.98058962       0.29168535       0.02142172
S       -5.76536272      13.76786282      14.78413983      -0.53144633       1.02654012       1.28069018
S       -4.48364903      13.25559630      20.88450911       0.52238048      -1.48685845       2.05098110
S       -6.77788622      10.85144176      22.93102142       0.80863427      -0.69578719      -0.12848109
S       -1.11368955      12.67170197      21.35412282       0.99312019      -0.21760840      -1.64048394
S        2.13822196      13.22744834      20.37048182       0.53705191       0.44109431       0.10515650
S       -7.25427702       7.45017187      11.60380015       1.64074404      -0.23703147      -0.72673557
S       11.13065141       6.97530264      15.75745808       0.02918416       0.06012803       0.66253179
S        9.60074865       7.88962219      14.42003793       0.99114427      -0.73286644      -1.49289295
S       10.05193533      11.32492261      12.82403012      -0.18350832      -0.07413312       1.13643390
S        7.25498439      11.63308546      15.42055955       1.60691980      -1.32788011       0.52154136
S        9.89308957      11.77447330      21.84645057      -0.12775590      -1.27398157      -0.62367073
S       11.00827803      10.08217261      21.82952374      -1.42449804       0.10830374       0.85480883
Li      -5.89281209      10.32428150       8.87882894       0.03170222      -0.29879641      -0.21994034
Li      -2.00959038      15.21222317       6.17363560       0.00417838      -0.47310671       0.29489236
Li      -7.09868696      12.82788737       9.98239135       0.03889366      -0.28871717      -0.30944119
Li      12.94376249       0.71685733      10.31305603      -0.15062746      -0.02807425      -0.09253240
Li       3.05939748      14.68826242       9.29650390      -1.09962016      -0.83770085       0.73581888
Li       9.05138347      11.35585591      10.84287566       0.13171667       0.41925421      -0.33505311
Li      -3.94481342       1.33423605       9.21867645       0.40975877       0.73897688      -0.07964376
Li      -4.89910777       4.73305421       8.06083385      -0.07720920      -0.17257679       0.91665724
Li      -0.63046142      -1.49845712       8.57461985       1.20775438       0.38920168       0.37831217
Li      -8.58382828      11.94643718       8.03128462      -0.33168246       0.70078284       1.02312300
Li       8.94811242      -0.38907145       9.09907558       0.70248393      -0.89132487      -0.88364321
Li      -9.90980332      11.78070780      11.75976485       0.13688060       0.24298054      -0.61628472
Li      -8.64605635       8.74621139       9.71358571       0.10136167       1.50551350       0.65783024
Li      13.02203774       5.55151689      10.64191264       0.29343985      -0.25698816      -0.09152011
Li      -3.40836724       4.23464424      13.08661690       0.72328875      -0.29644759       0.00054013
P       -2.48288822       3.75932744       9.94805506       0.46545057      -0.15771239      -1.15319828
Li      -5.24124603       5.95392886      10.92414826      -0.26724699       0.81337305      -0.10719608
P       -6.39819768       7.81055284       9.68807673      -0.07204143       0.06740145      -1.50085801
