279
Properties=species:S:1:pos:R:3:momenta:R:3 LayerForceGeomOptConstraint=T E_ref=-1066.1158873378688 step=2100 pbc="F F F"
Li       3.62982317      13.30464023      18.46871763       0.12523399       0.09432282       0.23148444
Li       6.81836548      11.64450910       7.84339370       0.33700167       1.12427587       0.58068542
Li       2.75751649       1.20748575      12.63128140       0.66366271       0.15252491      -0.40001031
Li       4.13997126       5.90091786      22.54718019       0.15312887      -0.52818845       0.71189336
Li       1.21620644       7.44510875       9.36702649      -0.20135206       0.09857887      -0.06184282
Li       7.90183815       2.45489150       9.83394666      -0.50690355      -0.21370297      -1.00864427
Li      11.50527133       0.70239557       7.79347995       0.66048345       0.12507613      -0.35103745
Li       2.30245196       5.23808304      10.83422325       0.66585510       0.30750968      -0.32910566
Li      -1.96011582       2.36398026       5.18875374      -0.18003041      -0.17235596       0.05442324
Li       6.95089612      -0.36409760      10.70303100       0.69527544      -0.43682608       0.10146373
Li       6.20717724      12.08598756      10.67205276      -0.80768472      -0.41741008      -0.74640515
Li       0.33572989       5.83721895       3.87224793      -0.24600319       0.08942795      -0.41108339
Li       3.59645498       0.50476539       5.69253066       0.60112276       0.07245116      -0.05495008
Li       3.04492615       0.71472172       9.78714143      -0.48927019      -0.41735370      -0.70630509
Li      -2.15691500      10.48253597       8.71863001       0.62586178       0.11009868       0.38701534
Li       0.48030911       2.15530617       6.60756120       0.42453642      -0.23927261       0.85877437
Li      -5.33926888      12.71176317      22.24851346      -0.03421712       0.41929013      -0.41627831
Li      -1.02053501      13.52632911      10.58741402       0.15916777       0.31822627       0.90361587
Li       8.71015010      -1.13504080      13.03102301       0.29920586      -0.50630258      -0.00259350
Li      11.10590126       6.38211589      21.87512073       0.52056715      -0.15457410       0.57685892
Li      10.72893494       4.89047569       9.70286301      -0.49366142      -0.02783782       0.34360349
Li      -1.64015523       3.45312286       7.71653167      -0.89893928      -0.41466700      -0.01017841
Li      -5.63408717      10.72289322       7.75239141       0.35101284       0.13158762      -0.08587421
Li      11.50090216       5.95771334       7.13605268       0.01980861      -0.44962245      -0.24336077
Li       5.21088865       2.04743396       8.69592103       0.07648707       0.05005749       0.33104085
Li      14.31055313      -0.24868322      11.72331888      -0.33739597      -0.44638520      -0.27683903
Li      -7.56959036      11.16601648      12.97595064       0.33529009      -0.08530357       0.57610993
Li       4.09872840       4.32388779       8.10631503       0.10823276      -0.61397059       0.15680479
Li      13.99644240       1.70629633       8.19341971      -1.09812094       0.05646769       0.43493406
Li      10.74637715       1.84849109      10.19360182      -0.32683940      -0.18681621       0.00097814
Li      -3.34955120       8.23050851       8.77382973       0.09773411       0.40025029      -0.85014715
Li       8.51370731       4.04993770       6.89269792       0.10005890      -0.20041433      -0.14651403
Li       9.47764401       5.90074715      24.42980821      -0.40572027      -0.27434711      -0.45850267
Li      10.17100695      10.02328438      10.70529543      -0.01653228      -0.20859775      -0.05137007
Li      -3.62289211       9.36236073      11.47018952       0.01843250       0.25207546       1.25352048
Li      -2.06275775       9.96919146      22.15653083       0.37625453      -0.80835278      -0.15194119
Li       0.44406969      11.42692357      11.92868970      -0.30134673      -0.55145888       0.94320901
Li       3.83526044       7.05512995       9.24059714      -0.45377722       0.16133507      -0.22859945
Li       0.04430421       6.22494406       7.19024403      -1.25933048      -0.33433429      -0.01600647
Li       1.04073837       9.40278792       7.51636107      -0.15377634       0.29893441       0.13675904
Li      -3.52918137      12.27471868       7.35899786      -0.87842309       0.19555809       0.87455007
Li      -2.65555127       9.58488863       4.31802671      -0.32539557       0.33353366      -0.05477080
Li       5.88717963       4.68156186      10.78046053       0.24706701       0.37970761       0.26602822
Li      -3.77731311      12.75190519      14.22749418       0.01736759      -0.38468381       0.64902585
Li       3.17492991      11.85739913      10.15098373       0.26440847       0.51967439      -0.12662875
Li      -0.96259194       8.40298487      10.97086517       0.08624599      -0.42142308      -0.02071080
Li      -2.18792145       5.90915477       5.28399671      -0.36801766       0.59366163       0.60981858
Li       0.94703084      12.04197722       8.45791324      -0.19318037       0.53296426      -0.87513665
Li       1.52849544       8.13767154      22.86259398      -0.01613063      -0.17314580      -0.91666636
Li       1.76451581       3.00395887       9.62311277       0.04741242       0.10906750       0.01696844
Li       4.14721601       8.70329638      11.53270102      -0.45611123       0.07808390      -0.10926365
Li       9.15675012      10.09398367      23.56502232      -0.16705663       0.46524892       0.55138128
Li       4.83599137       9.52292678       8.77183507       0.74258847      -0.29689543       0.09802150
Li      -5.09963524       8.28084637       7.19426232       0.49759491       0.33203149       0.25520911
Li      -2.16142337       8.20409926       6.70211637      -0.15563072      -0.79067723       0.53967662
Li       3.68262165       9.75286683       5.57621555       0.17279596       0.17159824      -0.35396452
Li       0.65904101       9.60475594       4.53068449       0.20076267      -0.10609303       0.99814839
Li       7.37427199       5.88993341       8.16145543      -0.95969776       0.09635372       0.32029059
Li      -2.03779774       6.02853255       9.06969149       0.12772895      -0.84088464      -0.24435878
Li       3.96395988      11.47824250       7.24758042      -0.47753250      -0.40673362      -0.10656579
Li       7.37734121       8.35006265       7.04373953      -0.83070958      -0.65833741      -0.38958253
Li       5.58587068       6.88472940      13.12830050       0.42147920      -0.16131204       0.57179956
Li       1.85206997       4.03190842       6.56534700       0.62975922      -0.47784143      -0.64849741
Li      10.04502497       8.03408930       8.38232003       0.93528315       0.00768178       0.19068032
Li       2.84409157       2.65940449      20.91458563       0.11414939      -0.37849655      -0.45159492
Li      -1.76371130       5.58666407      18.71963676       0.56988802       0.09001202       0.22616465
Li      -3.50759168      13.96871740       9.61179606      -0.12973354       0.10567526       0.01536019
Li      -0.74119800       2.64600972      23.87380944      -0.67139931      -0.01902684       0.04435753
Li       5.35818682      -0.80374826      18.93041287      -0.19255423      -0.42095118       0.14206259
Li       0.13779211       0.03147195      12.76979924      -0.26490215      -0.21934687       0.59861077
Li       3.09492113       1.29708659      23.88237776       0.11103000      -0.85925311       0.32893703
Li      -1.61139326       1.35796497      17.16732408       0.08486022       0.14065034       0.15342134
Li       1.62052905       4.40057606      15.80999830       0.07414014       0.30929135      -0.60405064
Li       4.96888904       0.10226254      16.28611156      -0.15522359      -0.12706124       0.15644979
Li       5.25147414       3.76987502      20.63104514      -0.26955653       0.14965355       0.07652891
Li      -1.28610791       1.55890677      10.13005114      -0.01501955      -0.17174856       0.41949837
Li       5.94812973       1.07505245      22.40591931       0.40028705      -0.17062701       0.37103752
Li      -3.70151418      15.51799171      13.43146582      -0.52148382       0.12363490      -0.65757714
Li      -0.19309155       3.09744069      18.98833867      -0.48411289      -1.08434868      -0.09425371
Li       2.73604897      -0.02693381      18.25344637      -0.55093161       0.17291392      -0.48032829
Li       1.83615913       3.92329197      23.71111079      -0.59706469      -0.43829873      -0.06991574
Li       9.50979942       2.27768241      12.65627201       0.36201939       0.15507504      -0.37555001
P        0.63827874       1.07247609      15.57766717       0.18419784       2.22701257       0.22406654
P        0.23468990       5.42924932      21.68782299       0.07488555       0.61073801      -0.49299735
P        3.99120959       2.95646202      11.08980427       1.40956057       1.01280827       0.00731260
S       -1.07148623       1.85834967      14.89109291       0.40132966      -0.47510018       0.18151763
S       -1.53399688       6.33693599      21.07354211      -0.39594367       0.96254035      -0.18789657
S        1.99115524       5.46800311       8.53054727       0.55260301       0.15058174       0.08215727
S        2.31888808       2.14514833      15.08706024      -1.20157675      -0.11029458      -0.76778498
S        1.71217252       6.59932979      20.85205761       0.00186428       0.22812770       0.24576601
S        6.53855861       3.84779647       8.12778117       2.29845935      -0.04231196       1.79691882
S       -3.20825541      14.78870781      15.75310560       0.27027432       2.80425156      -0.27761498
S        0.30628805       3.36499662      21.54347834      -0.85416765      -0.29455046       1.07968591
S        2.58153010       1.76467116       7.66887473       0.37617566       0.57128141      -0.55213173
S        0.50389663       1.05497570      17.71621474       0.14299974      -1.21680636      -0.30582633
S        0.38592406       5.87989176      23.72813149       0.17543158       0.37769281      -0.05869328
S        5.00981712       0.86160753      10.90418933      -0.35702097       0.89991326      -0.39802570
S        3.98640375       3.64718743      22.80776046       0.02448504       0.06155949       1.05702782
S       -5.27146895      10.66080979      12.82900031       0.89675531       1.05921422       1.38590971
S        0.46061792       5.14963020      17.62902382       1.61042199      -1.03226595       0.47860844
Cl       1.21630165       2.19514852      24.90430947       1.87866821      -2.08926854      -1.18569925
Cl       3.97755109       4.08937589      18.56120269      -0.60148885       0.30770715       0.18506609
Cl       0.57702788       5.12436155      12.56837880      -0.18913191       0.52434937       0.98792544
Li       8.99484650       0.05313549      23.44182550       0.03464696       0.80791617       0.84859513
Li       5.29281109       5.65245941      17.87767272      -0.39461533      -0.43305857       0.04630944
Li       9.91275621      11.91565331      14.63409031      -0.05172514       0.76917762       0.82030956
Li       6.16417991       3.83544761      23.56421841      -0.32524960       0.03059809       0.66446549
Li       7.28439350      11.96247877      17.41215417      -0.23897955      -0.24198896       0.87231676
Li      11.64033237       3.66917195      14.06377227       0.31814950       0.43306486       0.99962645
Li      11.99307726       2.40616690      23.93597484      -0.03613340       0.84297676      -0.31888821
Li       7.97257342       2.95929856      17.50474779      -0.22592539      -0.46311604       0.34960155
Li       9.60995600       5.74509773      12.90007095       0.14886328       0.02500687       0.30159342
Li      10.60440198       0.79488221      15.23269704       0.60637749       0.49772291      -0.60002813
Li       9.37022324       5.06720255      18.63838400      -0.13845462      -0.33761431       0.38186342
Li       6.35937032       2.48356928      12.73294390       1.00904373      -0.42420502       0.24431067
Li      11.58766434       3.67954148      21.23247094      -0.93325227       0.21462847      -0.82356366
Li       2.15992277      13.45757411      12.62397725      -0.01857056      -0.07138308       0.13631254
Li      12.34855900       2.52575045      18.48389077       0.25732211      -0.70111318      -0.41465483
Li       9.65151386       0.48232040      18.12846813       0.02792130      -0.57039673       1.08368997
Li       9.17770019       3.08254704      22.74380217      -0.21389585      -0.31494502       0.61329749
Li      -0.36719882       2.87861913      12.65804165       0.80378027      -0.12971744       0.68517037
P        7.72138006       0.45651511      15.31648842       0.86157974      -1.01658945       0.55080431
P        7.31348890       5.83399217      21.31860785      -0.32314572      -2.09953584       0.03500711
P       11.90089173       3.35051238       7.06464220       0.98738729       0.55065692      -0.15322790
S        6.17735730       0.23806634      13.94483485      -0.47400077       0.37405891      -0.04987799
S        5.61914927       6.68162624      20.66434290      -1.32518061      -0.55469772      -0.08359203
S       10.07875219       2.50412972       7.93813806      -1.04584218       1.47955864       0.43604295
S        8.74059288       2.25783435      15.00565291       1.53259829       0.05806248       0.50560324
S        8.93896668       6.85834156      20.50298818      -0.85012838      -1.36300558      -0.24229901
S       -0.46686559       4.09256652       5.53930751       0.73677763       0.10352475      -0.03576748
S        0.68806940      12.36427949      14.20661568      -0.35080231      -1.86232344      -1.49389143
S        7.49754322       3.85696399      20.91252776       1.09723914      -0.05607200      -1.15809901
S       12.79235047       0.56791255       9.97431235      -1.37849240       0.96296964       0.50483391
S        7.13923131       0.64428182      17.29978259       0.61513386       0.74026104      -1.65625740
S        7.12136720       6.05829096      23.44443804      -1.12638288      -0.42077155       0.93941025
S       11.13479127       3.59125018      11.73336783      -0.02349380       0.25075926       1.55658928
S       10.82176081       4.37942948      23.24326062       1.02832153      -0.40240544       1.43168402
S        9.07531487       0.40554553      11.04151297      -0.42147566      -0.90842027       0.58109726
S        7.55341690       5.41350034      17.36015366      -0.00370020      -0.52761222       0.86133106
Cl       7.38993567       1.87456594      24.03120696      -0.72768429       1.33740275      -1.30029779
Cl       9.88238206       2.76386690      18.65368090      -0.19137675      -0.11873271      -0.54468419
Cl       7.77056665       3.96854093      11.85200548       1.26712428      -0.67267561      -0.16032190
Li      -1.76751742      11.73043057      18.05256631      -0.19434567       0.16713632      -0.05891118
Li      -6.05210599      11.41351736      19.87683361      -0.62336818       0.10428304       0.18199452
Li       1.63675331       7.29208682      12.58095823      -0.22390476       0.75249807       0.03045009
Li      -4.82778079       9.84175944      21.90464705      -0.15783649      -0.01825873      -0.41093849
Li       2.39260384       5.61516607      18.70119593      -0.61081388      -0.06896184       0.00702295
Li      -3.88662211       9.90388097      14.77457963       0.61562618      -0.63099121      -0.31380204
Li      -2.52087418       6.50985434      23.19584453      -0.38416212       0.15036124       0.15101982
Li      -4.24611585       9.79680612      17.46247545      -0.84368999       0.00323376       0.31022321
Li      -1.48050997      13.27695263      13.95355563      -0.06054749      -0.20185170       0.23792791
Li      -1.32766632       4.22772060      16.50506311       0.31705537      -0.52471496       0.40355425
Li       0.42036352      11.35149862      20.09983821       0.46501182       0.74332869      -0.35544469
Li      -5.08927712      12.75796825      17.08100524       0.30289448       0.80355152       0.21801029
Li      -0.37155844       8.33296763      20.66817734       0.27286182       0.70143107      -0.50245465
Li      -1.59959939       6.12537479      13.25494677       0.41186935       0.00522464       0.13546605
Li      -0.79885918      10.73245779      15.46877854       0.03101780       0.79825836      -0.06025316
Li      -0.23604047       6.95449201      16.36378952      -0.35524707      -0.28806463      -0.47955080
Li      -0.39459536      12.30472121      22.09001514       1.02026226       0.47879276      -0.26708747
Li       5.38425535      12.56102451      14.72818656      -0.42949090       0.32613536       0.12489879
P       -3.23180555       7.13032745      15.45120683       0.06536270      -1.23915104       0.48158098
P       -2.98011755      12.42712497      20.77458748       0.39235277       0.32274575      -1.16916650
P        2.56268858       9.47257197       9.47722415      -1.01368377      -1.33014299       0.34991707
S       -5.03924389       7.98080980      15.11765780      -0.25336911       0.19107099       0.75972115
S        3.69340618      -0.78765058      21.85250434      -0.37757330      -0.78611238      -1.00556179
S       -0.74153181       8.00854643       8.50647790       0.05026073       0.05427587      -0.68825169
S       -1.81782729       8.40386617      14.34944759      -1.00711217      -0.48166302       0.20321283
S        4.48462148       0.69480831      20.54978223      -1.61806192       0.26878452       0.49825783
S        1.58621999      11.13024793       6.03806043      -1.31001275      -1.25191512      -0.47653589
S       -3.13291814       5.14517254      14.90347320       0.32873481       0.15871131      -0.58422339
S       -3.20856984      10.42362061      20.02676691      -0.17531060      -0.77183812      -0.42892445
S       -0.71028076       7.87370277       4.82752742      -0.78434756       1.77058419      -0.32028562
S       -2.79102211       7.64328911      17.38832477       0.65007631      -0.59638084      -0.42815848
S       -2.75221229      12.37264467      22.86310913       0.17482280       1.28019725      -0.19969098
S        1.43603841       9.43929323      11.35945993      -1.58972629       2.08275989       0.21063479
S        0.20857189       9.88587447      22.26016835       0.22925696       1.76037362      -1.82649786
S       -2.93302748       7.00295831      11.27974399       1.17576314       1.19090838      -1.70248537
S       -2.96164991      11.58058295      15.97991817       0.78814171      -1.07101207       1.18073232
Cl      -3.45042233       8.70890294      23.30562300      -0.62164967       1.34937959      -0.65391734
Cl       0.39920471      10.73889603      17.54861333       0.88659861      -0.61460236       0.06332526
Cl      -1.79227341      10.72092763      11.04273994      -0.84112272      -0.90017810      -0.11316961
Li       5.19092072       8.86672095      21.36672021      -0.59849416      -0.40903793      -0.31029130
Li       1.49805291      12.60060648      16.46887093       1.11503062       0.54656187      -0.45109457
Li       8.33614699       7.51835742      11.42752540      -0.92682227      -0.44908284       0.10068114
Li       2.44518992      10.68242140      22.96171704       0.61437210      -0.13213026       0.44342851
Li      12.72635057       4.86642558      16.71576539      -0.39683228       0.63399096      -0.29108772
Li      11.10380237       8.27734451      13.01590740       0.20583652      -0.07335268       0.37586917
Li       6.06930548       8.54836735      23.86824236       0.04787202      -0.60103101      -0.16084852
Li       2.63882880      10.06374399      17.93120395      -0.56905616      -0.38086155       0.32166608
Li       8.83659065       9.13188907      14.82545468      -0.25464552      -0.34455141       0.08720262
Li       6.86914271       5.97178111      15.30430886      -0.74277201      -0.00594615      -0.18148784
Li       6.69322356      10.95038122      20.38171220      -0.16386903      -0.36980912      -0.71662698
Li       2.90541838      10.61167026      14.46557017       0.66393437       0.17719722       0.05563710
Li       8.38499425       8.06000890      22.76903420      -0.12311628      -0.20767903       0.09442340
Li       3.47137531       4.74069368      13.06519991       0.39409701      -0.24662334      -0.27777333
Li       5.29826899      10.14541627      16.76563429      -0.11487381      -0.59782093      -0.00771292
Li       7.57839843       7.36764739      18.38941615      -1.01707315      -0.13506667       0.36076633
Li       5.96177790      12.44595332      23.03271670       0.10583424      -0.17474227       0.08458102
Li      -5.37521310       8.34254824      12.84467536      -0.19203999      -0.26741656      -0.01774925
P        3.61651669       7.61081231      15.44979193       0.62171519      -0.61036674      -0.39602494
P        3.66519250      12.36461153      20.94245770      -0.74728091      -0.82869435      -0.96883721
P        7.37800437       9.64607075      10.15224001       1.15977571       0.12911331       1.04297169
S        1.66381230       7.74158889      14.96689787      -1.54135924      -1.14511736      -1.20729597
S       10.38546871       1.00525532      21.31088295       0.20203949      -0.87755193      -0.28328808
S        5.72435154       9.80768061       6.64902242       2.15380953      -1.02228220       0.30655208
S        4.67780707       8.82124874      14.27180117       0.37955994      -0.32661110       1.17135542
S       11.65520137       0.12741425      22.60802379       0.58423877       0.10957253       1.28405595
S       -3.63888454      10.10901294       6.68927554       0.54781149      -0.34542952       0.16822966
S        4.38144071       5.68967029      15.16131076       0.05131149       0.28251135       0.03036917
S        3.38629812      10.43322904      20.45912899      -0.08907293      -0.64496410      -0.20513978
S        9.23236852       6.30379010       6.96355066      -0.37827125       1.38851482      -0.24135535
S        3.98022211       8.02387256      17.46861402       1.17372275      -0.27603688      -0.22288638
S        3.47070832      12.79934105      23.01899806       0.19855324      -0.22074190      -0.28576098
S        6.58697616       7.72429360       9.61329970      -1.09421347       0.31110818      -1.74665443
S        7.01037221      10.24147118      22.51714287       0.55797998       1.04923660      -1.08541112
S        4.07734287       6.38123433      11.53352005       1.56778940      -1.33541449       0.33208634
S        3.77907579      11.87532365      16.54669176       0.25631113       0.35331186       0.40579570
Cl       3.71202069       8.37213075      23.36743566      -0.48856539      -0.00437769       0.88420770
Cl       7.13324195       9.99615904      18.54245333      -0.12593978       0.25733565      -0.36425977
Cl       4.39547997      12.13314665      12.55880732       1.63851233      -0.00135736      -0.84765131
S        8.84545496      10.08086058       8.69803777       0.68826134      -1.55919207       0.89778429
S        0.93185476       1.07676978      10.87853116      -0.96611183       0.01931087      -0.72626373
S        1.24572216      13.26529586      10.30795546       0.03093519       0.60258276      -1.61843233
S       -1.44626484       1.19508350       7.54354317       0.56816748       0.15069618       0.29457502
S       -8.41650914      11.33370440      10.95986834      -1.02783480       0.31656043       0.77025665
S       -5.35272653      12.64396614       9.08380275       0.13869667       0.12092888      -0.29967056
S       12.94541801       4.22038823       8.66698854      -0.22305539      -0.46288621      -1.40244507
S       -1.43680770      12.94881192       8.13705144      -0.58223415      -0.03944684       0.49064867
S        5.00497574      12.86932889       8.87723988       1.04755335      -1.08455557      -1.01216927
S       -4.96103397       3.63913632       9.52450193      -0.70589879       0.79712932      -0.29439998
S       -3.70192966       6.49650593       7.07381469      -0.99480823       0.98894428      -0.39031827
Cl      -2.60742893       3.19356877      18.32557546       1.05360788      -0.14546579      -1.50501094
S       -3.02124476      13.99318243      11.93444777       0.72491006      -0.77386709       0.35178941
S       -1.41547702       4.79696321      24.42026530      -0.89898682      -2.36890423       0.34766656
S        4.00334528      -1.49898342      17.53782876      -0.47981451       0.89842625       0.27018737
S        4.60633289      -0.39095476      23.75817828      -1.45835224      -0.30704255       0.90473850
S       -2.62731300       2.72513933      11.78397133       0.35574814       2.03475098       0.54988855
S        0.62804067      -0.77651427      14.83472699      -0.00204098       0.81227978      -0.31473182
S        5.32041663      13.29351764      20.15220669      -0.50729386       0.82716730      -0.38263859
S        7.80613358      12.76377641      15.14863997       0.09407537      -0.84214964      -0.45828367
S       11.08095794       0.31800164      24.59613475      -1.38536936       0.92645827       0.02341897
S       10.54877689       7.10464732      10.56742389       1.04796639      -0.01689145      -1.60522324
S       13.04629991       5.55367680      14.24082536      -0.53270374       0.04029912       0.23580496
S       12.21543544       0.58480630      17.12346894      -0.77379162       0.11905419       0.14927251
S       12.61791631       2.35996173      15.99935307       0.30997624      -0.54392321      -0.19514569
S       12.31416970       5.53725126      19.25541076       1.60315988      -0.31405530       0.60934046
S       13.48653035       3.95005522      19.95401213       0.49456291       1.03550005       1.37925379
S        9.00857677      -1.15830420      15.34456219       0.97233428       1.81317953       0.83982136
Cl      -6.30135840      10.66047523      17.62641874       1.69143017       1.25272123       0.64536626
S       -5.26660519      14.51755194      15.11481461      -0.34149992       1.17914125       0.17479967
S       -4.55035779      13.64074953      20.09457226      -1.37347546      -0.59186726      -1.02882898
S       -6.72877392      10.99154085      21.92756108      -1.08201042      -0.71702135       2.42871926
S       -1.16562933      13.24531029      20.11878405      -0.28138071       0.24124548      -0.81277004
S        2.12581992      13.40992794      20.08250068       0.02208400       0.04001035       0.21914533
S       -6.73454288       7.34538842      10.76246720       0.25704820      -1.21766049      -0.29582797
S       11.10774347       6.18359081      14.56915900      -0.37916525       0.38954625      -1.64072016
S        7.91470050       7.16961510      13.68630819      -0.60481551       0.51746800      -0.70906041
S       10.22176729      10.27786851      13.16526378      -0.45402978       0.22107120       0.75411466
S        7.06095123      10.66847820      14.96654722       1.10521985       0.86185132       0.49937003
S       10.81374712       8.31562006      23.21777041       0.91270804       0.45447128       0.01223311
S        9.66314790       8.32865216      24.94342123      -1.21344780      -0.23448537      -0.56816790
Li      -6.17122985      10.98495914      10.62894118      -0.23193272       0.29381200       0.27840437
Li      -0.59278556      11.89290936       6.14935113      -0.11998898       0.55904770      -0.64166309
Li      -4.46866438      12.43193347      11.42390854       0.69835314      -0.28818659      -1.32037967
Li      13.02652504       2.67916661      10.62813018       0.60071778      -0.08639707       0.17101341
Li       3.09098473      14.43205693       9.32008712      -0.16611521      -0.29510244      -0.02004959
Li       7.87939066      10.09483488      12.62703298      -0.52255708       0.16269630      -0.08159596
Li      -3.65340987       1.35702570       8.59958907      -0.37850124      -0.50452633       0.02991708
Li      -5.52870478       4.97386948       7.43122477       0.69432013      -0.81540224       0.93434168
Li       0.62821879       0.40696738       8.70804140      -0.32691480       0.77353636      -0.13390516
Li      -7.62419684      12.66537310       9.26778107      -0.13613960      -0.77454351       0.15014073
Li      10.85109233      -1.18055506      10.47099222      -0.61563857      -0.29383327      -0.07233574
Li     -10.52226515      11.64764413      11.84034906       1.04527486       0.09470555       0.79266461
Li      -8.30396263       9.17483983       9.88546864      -0.35626898      -0.04827054       0.17957073
Li      12.22519173       6.01513382      11.83164224      -1.01255775       0.76835421      -0.47985699
Li      -3.61822823       4.76170319      12.35625099      -0.96810235      -0.21195281      -0.28521688
P       -2.97066549       3.77287556       9.94918295       0.79630432       0.84042965      -0.15760497
Li      -4.75476902       6.20602929       9.96974784       0.31536481       0.53190126      -0.52411335
P       -5.70890173       8.75376462       9.59685091       0.61260073       0.60538047      -0.56060047
