279
Properties=species:S:1:pos:R:3:momenta:R:3 LayerForceGeomOptConstraint=T E_ref=-1062.3442383489055 step=1600 pbc="F F F"
Li       4.06497072      14.34765840      18.83101400       0.41216859      -0.20225200      -1.14262279
Li       6.73579241      11.62239661       7.70003999       0.41389762       0.22813459      -0.38945111
Li       3.00730168       1.42709340      12.59470957      -0.53151478      -0.41240229      -0.04258784
Li       3.71687912       6.32920951      22.36460582       0.25047537       0.01851730      -0.30866766
Li       1.39394609       7.42569161       9.45430161      -0.27737826       0.06068866       1.00270523
Li       6.92228614       2.63080395      10.55252810      -0.17383164       0.11744425       0.79760450
Li      11.96347411       0.89502522       7.87224893       0.54446825       0.21451611       0.23382950
Li       2.47875359       5.30849801      10.99343327      -0.91001550       0.29796001      -0.04162428
Li      -1.19255456       1.89330995       5.05903088       0.41222752       0.07631630       0.13353720
Li       6.56618549       0.31171783       9.91924008       0.18231747       0.52407921      -0.64811255
Li       5.97471524      12.09978219      10.65581586      -0.29374719      -0.04043059       0.74845704
Li       0.78304350       5.50929765       4.00664212       0.77121756       0.59280001      -0.59495482
Li       3.26764400      -0.07680468       6.34055923       0.33622511      -0.27989594      -0.91399584
Li       3.29971385       1.14004618      10.01574130       0.39809218      -1.02275158      -0.27109015
Li      -2.00602709      10.32223314       8.28670022       0.34284792       0.48568588      -0.36284537
Li       0.99053438       1.69927940       6.41973414      -0.36648289      -0.68596708       0.13393753
Li      -5.52184728      12.85888288      22.96856333      -0.10349855       0.48577236       0.09456892
Li      -1.35344924      13.65915281      10.06728098       0.58846927       0.25008847      -0.12158210
Li       7.50819641      -0.50594079      12.83625357       0.87680777      -0.95499526       0.36656407
Li      12.56526601       5.37385650      21.90951723       1.13077213       0.11038026      -0.04632047
Li       9.58760982       4.35667569       9.44821725       0.90930377       0.54558251      -0.42354240
Li      -1.20682919       3.33587053       7.67042786      -0.67829641       0.25610803       0.33925269
Li      -5.24533154       9.96990403       7.55508895       0.56065066      -0.40790769       0.29991212
Li      11.33897717       5.88008705       6.76063387      -0.18813467      -0.90541128      -0.21770005
Li       5.72706667       2.00173765       7.18521505       0.04357689       0.19214459       0.16939370
Li      13.95630440      -0.87989709      10.17226798      -0.08685184      -0.59527862       0.46414964
Li      -8.29162353      10.20307393      12.16920277      -0.49711220      -0.36517734      -0.53729063
Li       4.29887106       4.07998697       8.90352221      -0.20166746       0.47528381       0.13179174
Li      14.69179527       3.53127183       6.29377497      -0.58108009      -0.60941084      -0.30719867
Li      10.42087865       1.88711365      10.22334078      -0.42549630       0.30704474       0.33865785
Li      -3.30673377       7.91741905       8.96877328      -0.43660855       0.46513743       0.06735215
Li       8.45432750       4.02621594       6.93820632       0.51156062      -0.80333430       0.01831797
Li      10.38670033       6.41648378      23.41754952      -0.80608922      -0.64821477      -0.10039852
Li      10.18629144       9.83323794      10.75769483      -0.69609429       0.18843781       0.02640465
Li      -4.59920640       9.65532526      11.24268515       0.02164348      -0.88953533      -0.50231414
Li      -1.95287130       9.69749823      22.65262280       0.28516837      -0.27770911      -0.01426628
Li       0.23354456      10.99673134      10.50898997       0.85986566       0.04385722       0.11727402
Li       4.08294857       7.26773747       9.54033888       0.27916771      -0.01845749      -0.15929991
Li       0.88336014       6.39428056       6.84856152      -0.04943283      -0.52877746       0.46008227
Li       1.02468824       9.61448367       7.91871237       0.03505571       0.10401591       1.09082603
Li      -3.85257531      12.14994382       6.79236729       0.44484106      -0.23869388      -0.59462449
Li      -2.39643031       8.65470097       4.21129936       0.56884288       0.33202154       0.04228144
Li       5.72724064       5.29302837      10.96431218      -0.25262410       0.57406367      -0.27549914
Li      -4.02461869      12.32442002      12.75543165      -0.15562129      -0.33721039       0.96808318
Li       3.14533251      12.07726086      10.24772080      -0.07503310       0.72997082      -0.07271297
Li      -1.06780567       8.67074140      11.45461879      -0.02637967      -0.42589188      -0.80318138
Li      -1.73939331       5.41689853       5.25106164       0.15291934       0.04793671      -0.66212511
Li       0.56152294      12.70469152       8.20223541       0.97681699      -0.85461411      -0.21480636
Li       1.18272525       7.98668311      23.19391093       0.40712565       0.11134631       0.30085528
Li       1.68077284       2.97685182       9.62723181       0.18175566       0.15616088      -0.15071166
Li       3.86001466       8.96877437      12.30271192       0.86738464       0.27397719      -0.21275417
Li       9.19819314      10.58685803      24.37023676       0.62680411       0.68030869       0.25448808
Li       5.04809850       9.68037938       8.59333726      -0.01302075       0.47593954       0.57928885
Li      -4.50438450       7.40606252       6.57224701       0.07325488       0.34863096      -0.53611709
Li      -1.29920957       7.79055061       6.70808834      -0.68711973       0.25790900      -0.48110784
Li       3.28740520       9.69702056       5.80139481       0.48991630      -0.20335108      -0.19639597
Li       0.57491971       9.70964314       4.65277472       0.50029529       0.71175608      -0.68798340
Li       7.01835776       6.08964238       7.88519919       0.67981733      -0.87126686       0.15486533
Li      -1.78294371       5.88957680       9.39282634      -0.06620097       0.51407195       0.42408130
Li       4.07984074      11.95150547       6.72100958      -0.36469832      -0.65543272       0.14132957
Li       7.59256330       8.73535919       6.76736544       0.82128205      -0.56654442       0.15232092
Li       5.95765749       7.53913585      12.67744083       0.50544566       1.15722071       0.42837874
Li       2.29285114       4.16113817       6.52359513      -0.22154558       0.13025139      -0.14911479
Li       9.80959126       7.92545940       8.47124494       0.76636928      -0.06110078      -0.02942994
Li       2.81483054       3.00140515      20.80369944       0.12023394       0.48420513      -0.00769710
Li      -1.80805080       5.52595632      18.18086480       0.38133019       0.42314122      -0.33746316
Li      -3.87342181      13.05755182       9.39820581       0.12021029       0.18425375       0.51963479
Li      -0.68879917       2.72546329      23.42683260       0.02306128       0.90283646       0.03462383
Li       5.37046124      -0.76997901      18.91787230      -0.13528374       0.13532624      -0.52040016
Li       0.74546382      -0.42382330      12.85122237      -0.50121675      -0.16858584      -0.05220584
Li       2.90830602       1.32372767      23.24789014      -0.04242373       0.37663647       0.07678858
Li      -2.07345945       1.98710564      17.23924195      -0.31147287      -0.68525327       0.01821161
Li       2.43500571       3.61321764      16.84455922       0.36855949      -0.16648290      -0.01920901
Li       4.20163734      -0.07100366      16.18051412      -0.54072946       0.57241887      -0.34618822
Li       5.24549231       4.21111276      20.85887926       0.06538741      -0.69221424      -0.54045903
Li      -0.97195814       0.95850546       9.83661000      -0.11526345      -0.17677911      -0.28362389
Li       5.46824335       1.68767797      22.31715056      -0.06073273       0.18802923      -0.23745863
Li      -3.93366636      15.04099339      13.70897912      -0.32830297       0.26411587      -0.82814450
Li      -0.32687418       3.47736699      18.62724188      -0.23252289       0.09964550       0.29019073
Li       2.25555733      -0.24614720      18.84487879       0.17551396      -0.01198044       0.96829459
Li       1.97110887       3.88004010      23.98765336      -0.35070164       0.13328779      -0.07989238
Li       9.29088547       2.41074571      12.52126445       0.09331645       0.26110418      -0.26822894
P        0.54585908       0.93114745      15.68271111       1.67714469      -0.04157281      -0.45763953
P        0.14941240       5.61577225      21.55229180      -0.23271197       0.48673604       0.23419615
P        4.17385111       3.28688085      11.42708028       1.22308079      -0.79363727       0.53620817
S       -0.95589994       2.20743475      14.89509893      -0.46091024       0.66157485      -0.91779822
S       -1.41054138       6.67218058      20.73775949      -1.63861107      -1.18825340      -0.22741239
S        2.60507946       5.86433167       8.28415234      -0.21713892      -1.21144264       1.64051665
S        2.44939580       1.63593033      14.95739220       0.29669843       0.32623344      -0.61776812
S        1.69205119       6.84833721      20.99709315      -2.04248505       0.27497170      -1.81759577
S        6.57641481       3.74679535       8.35402856      -0.68229357      -0.68605193      -0.62547532
S       -3.81779006      13.54618236      16.13884160       1.03838812       0.56063853       0.63601085
S        0.26092437       3.51844203      21.11424659       0.79514013       0.08947911      -1.13985672
S        3.01026259       1.93988143       7.70157309      -0.47281841      -0.80013687       0.78721251
S        0.49873282       1.30571139      17.72586992       1.75126022       0.44612302       0.67503557
S        0.06148047       5.62303308      23.70677158      -0.87913702       0.10271444       1.03124158
S        5.13472787       1.27258316      11.66324686       0.30014769      -1.14699502      -0.28716023
S        3.90734441       3.67810836      22.87012751      -0.72168156       0.32118034       0.54401241
S       -6.03433629      11.29602263      12.46033562      -0.14649387       0.09785100       0.63963678
S        0.36593586       5.40017432      17.23039523       0.79214307      -0.20318374      -0.39291840
Cl       1.17747922       1.81683689      24.61970310       0.65796832       1.11991797      -1.59999163
Cl       3.47934348       4.37703669      18.91523375      -0.03383988       0.63085594       0.20850959
Cl       0.68565034       5.26819349      12.52747633       0.32550567       1.39011064      -0.29202609
Li       9.49816724       0.58733047      23.37673463       0.13612310       0.01820507      -0.16145157
Li       5.25168942       5.71709914      17.63833213       0.51851854       0.41072586      -0.34951239
Li       9.53757866      11.89952320      14.58738499       0.03653307       0.25952522       0.12311024
Li       6.32342107       3.84808196      24.05840758       0.80896187       0.08773174       0.02738102
Li       6.36833621      12.79514931      17.04408697       0.19980293       0.14764498      -0.13744874
Li      11.39824248       3.06452103      14.77999314       0.55583487      -0.37886813       0.14954429
Li      12.31937803       2.42657491      23.84045145       0.20714802       0.27429628      -0.01867869
Li       7.95055589       3.17293948      17.09003009      -0.49150211       0.36976689      -0.12063132
Li       9.85694484       5.53431323      12.91355134      -0.07767710      -0.18062353      -0.22283600
Li      10.53992638       0.16546336      15.57286124       0.30343826      -0.08748066      -0.54888601
Li       8.86630269       4.79351451      19.37853231       0.41842541       0.06487896      -0.04758400
Li       6.54185978       2.59096713      13.62719806      -0.50188695       0.45383337      -0.60228620
Li      11.52019222       2.92806702      21.25338841      -0.12584996       0.15566719      -0.35808628
Li       1.85938760      12.74133758      12.81150014       0.02857608      -0.49234640      -0.11105833
Li      12.16495131       2.61527358      17.86564692       0.37947200       0.47304655       0.65722356
Li       9.98808195       0.26267874      18.67296213      -0.10195104       1.00451741      -0.78140420
Li       8.99910682       3.77646922      23.60800342      -0.22286288      -0.46097631       0.42475001
Li      -0.24728481       2.86329749      12.39187900      -0.77377042      -0.64536427      -0.05584669
P        7.63169192       0.08359016      15.50046724      -0.43100134       0.72335392       2.74489455
P        7.58684561       6.08433162      21.83125736       1.94795862      -0.09518606       0.21998887
P       11.72803204       3.26801259       6.54897618       0.63844408      -1.37285723       0.58672571
S        5.88384094      -0.06320469      14.36711814      -0.85235067       0.00835812      -0.32493450
S        5.80179860       6.73397903      20.80743390       1.01440161      -0.26336396       0.52844402
S       10.03030987       2.51291344       7.72759195      -0.76099177      -0.91005231       0.51586136
S        8.59912361       2.20504097      14.95229548       0.75169847      -1.11957692      -0.19797728
S        9.12480864       7.08074903      20.98675273      -0.69935551      -1.10387962       1.25959294
S        0.20061508       3.62209818       5.35465519      -1.45356312       1.91188394      -0.13243976
S        0.41097533      12.66393912      14.58102631      -0.29169067      -0.61275186       0.04373124
S        7.66891272       4.10393868      21.38923504       1.36562592      -0.49254262       0.45871697
S       12.44968691       0.70195695      10.28081657       0.46999701       0.62204129      -1.04718666
S        7.46444313       0.19554924      17.56948358       0.55777255      -0.72991270      -0.25509016
S        7.35503133       6.19013594      23.94198345      -0.25339790      -1.33821376       1.13478964
S       11.12680760       3.72625702      11.47049971      -0.03934201       0.74195837       1.49886265
S       11.21434807       4.29149652      23.27385581       1.70185235      -0.22479923      -0.02992142
S        8.60320658       0.62354691      11.09040109       0.49451632      -0.31707029       0.76497650
S        7.91736351       5.79044717      17.47760178      -0.10263288      -1.41939364      -0.01943372
Cl       7.60081097       1.98738995      23.99780296      -0.03643994      -1.48692053      -0.51127013
Cl       9.83887085       3.00049367      18.35163130      -0.95230744       0.83804532      -0.99177289
Cl       7.59749138       4.53111976      11.86235398      -1.72802121      -0.73733325      -0.70890083
Li      -1.43326761      11.12156753      18.76418023      -0.60354131      -0.15013800       0.55323760
Li      -5.92336070      11.17392841      19.83393063       0.08462190      -0.17463359      -1.17061462
Li       1.47950014       7.23759898      12.83069567       0.41036641      -0.19643530       0.03214193
Li      -5.02005416      10.09328067      22.60143036      -0.36685697       0.72618842       0.28929298
Li       2.25365358       6.21596402      18.49925628       0.42523708       0.14676561       0.41858818
Li      -3.34851912       9.18519293      13.20497093      -0.30332415       0.87056159       0.07860043
Li      -2.89912287       6.24984410      22.65774343       0.14916439       0.07781518      -0.34986874
Li      -4.27159758       9.82500763      16.92405245       0.19977008       0.29544458      -0.16143929
Li      -0.76912359      13.76413676      12.66906619      -0.06905597      -0.44686398      -0.38983344
Li      -0.56419685       4.57196898      15.21151228       0.05326795       0.06847507       0.02035405
Li       1.06304999      11.35739607      20.69608095       0.36164372      -0.22788530      -0.54049798
Li      -6.11596356      11.93540619      15.16663950       0.18113989       0.30234277       1.04819256
Li       0.03564692       8.78251492      20.38595800       0.49395623      -0.07601482       0.37292944
Li      -1.58085688       6.41773413      13.13405828       0.21860479      -0.65284650       0.17036105
Li      -1.25127008      10.98526764      14.61790399       0.16600543       1.22703084       0.17730802
Li       0.12859315       7.72153591      16.78652583      -0.07629022       0.60656846       0.52233612
Li      -0.65964590      12.04545794      23.03248476      -0.26735486       0.06772998      -0.18907026
Li       5.17628435      12.23717366      14.57922115      -0.13322220       0.84920992       0.40814362
P       -3.09200029       7.40188481      15.43766520       0.07888308      -0.51951312      -2.22534857
P       -2.92621002      12.43206342      21.46614908       0.94956377      -0.97749915      -1.85841474
P        2.65090001       9.49275707       9.79323231      -0.25595889      -0.16913762      -0.46750092
S       -4.83598233       8.32276996      14.95465574      -0.83605056       0.37257220       0.39420025
S        3.14782585      -0.30692841      21.57951007      -1.66132977       0.45027227       2.30432952
S       -0.76065604       8.31975028       8.88508249      -0.71088347      -0.90304036       0.94266780
S       -1.35465152       8.38125772      14.44655130      -0.23401592       1.53257536      -2.38345685
S        4.12564708       1.02155920      20.20945666       0.54676386      -1.11220059       0.16385566
S        1.65939922      11.33143308       6.32159893      -1.77491467      -0.10088812      -1.95189210
S       -3.02401893       5.37401656      14.92339092      -0.13017321       0.37961837      -0.82766368
S       -3.31437265      10.52983557      20.53686931       1.13494631      -0.39277786      -1.99909938
S       -0.19905142       7.46035635       4.78250026      -2.53197552      -0.23823839       0.68960468
S       -2.76404044       7.66237385      17.42804190      -0.69886514      -1.32639672       1.10147341
S       -2.83686516      11.98925597      23.56288576       1.49912323      -0.06239027       0.00309253
S        1.49320334       9.35054863      11.64722163      -0.33903275       0.01057552       0.05862791
S        0.37472654      10.03426368      22.61169025       0.66654351      -1.43049602       1.05438043
S       -3.19799589       6.86762955      11.35928357       0.31104943       0.87327834      -0.61992154
S       -3.61838344      11.66898454      15.14418736       0.53039795      -0.69568089       0.80833507
Cl      -3.68712698       8.30863891      23.30359882       1.32762492      -0.67271250      -0.59722834
Cl       0.61992781       9.83847152      18.25362890       0.94933469       0.99521133      -0.70891881
Cl      -2.26654902      10.52640565      11.59717745      -0.61828087      -0.13792558      -0.12745175
Li       5.87883739       9.27142843      20.90464794      -0.48748921       0.11998838       0.63847607
Li       1.67774435      13.21037346      16.49607170      -0.79255483      -0.68015657      -0.15724812
Li       8.47797593       7.36907614      11.10483433       0.38421066      -0.14248704      -0.41405194
Li       2.72847129      10.32894164      22.69863900      -0.56882842       0.81243571       0.49673905
Li      10.43825366       5.73962186      17.12899591       0.44331164       0.42725916      -0.52139509
Li      11.14765895       8.06775826      12.88277452       0.07864656      -0.62905006       0.96040408
Li       6.12503462       8.36879976      23.83218918      -0.10375350       0.08630670       0.38904519
Li       2.83724908      10.74993419      18.12305339      -0.94946824       0.14352977      -0.45154490
Li       9.39804206       9.22252018      14.81678030       0.40134027      -0.42358219      -0.24221551
Li       7.42391076       6.91020015      15.35758858      -0.50943262       0.56114378       0.06716206
Li       7.56144611      11.16760879      20.36457434      -0.21327579       0.54407513       0.86111894
Li       2.23003160      10.85031468      14.99178948      -0.12602899      -0.41912051      -1.34477716
Li       9.22143716       8.93158157      22.35075881       0.08379634      -0.21407674      -0.03771308
Li       3.30632196       4.60487372      13.47993797      -0.04092134      -0.63124109       0.28114279
Li       5.26109726       9.94667318      16.94741832      -0.77976102       0.14849397       0.03921349
Li       7.43003238       7.46657668      19.28527852       0.27998417       0.62410849       0.00966232
Li       5.79387671      11.99480869      22.76417782       0.21516488      -0.23437507       0.71256578
Li      -5.21975857       7.20971305      12.73545302       0.52266824      -0.00047705      -0.36446416
P        3.55443302       7.51922970      15.77177535       1.14713549      -0.70150546      -2.20248981
P        4.02471365      12.37882187      20.81091717       0.41965976       0.31927604      -0.70645957
P        7.40447213      10.06265998       9.99753971       1.47824443      -0.93688200       0.27949261
S        1.83970642       8.35115542      15.03888969      -1.52567570      -0.43538766       0.24822843
S       10.26904902       0.55216746      21.15271552       0.11581889      -0.39298860       0.57802033
S        5.51196247       9.90776873       6.32342615      -0.25194471       0.26754547      -0.78002615
S        4.96483350       8.57314379      14.81923162      -0.18230117       0.26320853      -1.06550329
S       12.17119928       0.44586964      22.11242098      -0.19225120       0.75044419      -0.18217947
S       -3.34574702       9.57440013       6.27657951       0.01662536       1.78534716      -1.49813152
S        4.03535417       5.46392560      15.53789523      -0.36149596       1.82975209       0.77855802
S        3.71595523      10.35993326      20.36929955      -2.31472923      -2.34702098      -0.81011609
S        8.98746005       6.46103857       6.96789589      -2.01249725      -0.24544419      -1.15266569
S        3.80345620       8.02791720      17.67148963      -0.24252981      -1.08120324       0.25112057
S        3.58648906      12.69384630      22.74390729      -0.16687790       0.06815045       0.62542417
S        6.75237032       8.00165428       9.69052685      -0.00166240       0.37642353      -0.36394476
S        7.26626075      10.09376613      22.53296139      -0.74322369       0.00678311      -0.46853732
S        4.05724638       6.68400761      11.74534800       1.70832144      -0.90167235       0.72086507
S        3.76205290      12.16951089      16.53597934       0.17182118       0.22614627       0.32672259
Cl       3.60716708       8.29013294      23.87385200      -0.01190312      -1.23196126       0.28936195
Cl       7.12458731       9.58117411      18.65496676      -0.41606798      -0.25064121       0.24102225
Cl       4.06089650      12.01045985      12.40297232      -1.02095687       1.65829458       0.47848665
S        8.81461158      10.45124535       8.56003582      -0.65326793       0.30728802      -0.80706165
S        0.94953700       0.91926328      10.95878306      -1.03194692       0.42780414      -0.41391146
S        1.00690399      13.24147512      10.43929046       1.06074101       0.31445060      -1.00609567
S       -1.03977141       0.94970367       7.42747784      -0.51434383      -1.09431816       0.21418922
S       -8.92593233      11.00089520       9.93081746      -1.52341637       2.02400298       0.27921666
S       -5.69682286      12.15114727       8.45236311       0.36037098      -0.29431050      -0.82236752
S       12.93085309       4.27337805       8.06596435       0.58122949      -0.18219080       2.12493378
S       -1.90215957      12.72109873       7.93208768       0.89209829      -0.21028467       0.22107525
S        4.75831676      12.89438425       8.75540018       0.88510587      -0.39332820       0.57053134
S       -4.70265290       2.91029823       9.11583205       0.98323067      -0.61335149       0.18628989
S       -3.04108318       5.83766756       7.24067507       0.64450008      -0.24812211       1.10494077
Cl      -2.71381007       3.27569478      18.93971921      -0.89094981       0.43416438      -1.88922351
S       -2.90393694      14.10189624      11.77622743      -1.79861708       0.95148163       1.06660664
S       -1.82143904       4.73403244      24.09649449       0.82958604       1.34934069      -0.24496776
S        3.74853341      -1.68219796      17.57714108      -1.40979399       0.09720612       2.44486507
S        4.51266409      -0.42442011      23.05137750      -0.99843388       0.79248290      -0.18477119
S       -2.35767092       2.20286790      11.29366205      -0.29662951      -1.07766277       0.82416801
S        0.08119634      -0.96355703      15.20810087       0.80282957      -0.32619825       0.56889522
S        5.77368994      13.20948744      20.25052755      -0.07947755       1.15508093      -1.20893954
S        7.54482878      13.24657160      15.09243256       1.30645192       1.82711834       0.33959290
S       11.84088768       0.17959707      24.16638311      -0.21242460      -1.84585118       0.72934765
S       10.62816680       7.36517049      10.59051363      -0.26341325      -0.30724321      -0.83354720
S       12.66542718       4.96884628      15.47192976       0.74827145      -0.46883120      -1.20829305
S       11.93847127       0.13951174      17.56341657      -0.47178036       0.30881319       1.12316976
S       12.49666017       1.30550924      15.83031199       0.97339741      -0.03951323      -0.80216355
S       12.18135033       5.63137382      19.53094432      -0.13186766      -0.37198155      -1.37218213
S       13.19557484       3.84056286      19.88609225      -0.78909050      -0.72366338       0.77883077
S        8.99880676      -1.22553311      14.69564961       1.86837183      -0.26070109       2.13666446
Cl      -6.18398017      10.85151908      17.66319598       0.13033650      -0.19637669       0.60044798
S       -5.61256881      14.25970188      15.42534771      -0.88594872      -0.69258306      -1.27177564
S       -4.33511503      13.73511309      21.06129264      -0.96457541       0.76742794      -0.32598244
S       -6.85712211      11.29039279      22.06316107      -0.84931355       0.76624118      -0.09051998
S       -1.06582571      13.08904214      20.79528072       0.12200989       0.99293886       1.14894547
S        2.34120200      13.20275240      19.71946843      -0.90712832       0.67992493      -0.35891327
S       -6.67215792       7.99530407      10.81928772      -0.70709000       0.08189936       0.14456220
S       11.04505559       6.03092743      14.83423744      -0.36060830       0.19501839       1.18976145
S        8.13919207       7.59002035      13.36678593      -0.26680954      -0.05067300      -0.08422275
S       10.35427108      10.44434452      13.07542674       0.27616341      -0.31461178      -0.03213150
S        7.20745607      11.10703084      14.99089477       0.04661215      -0.35632896      -0.56935717
S       11.16374528       9.91978122      23.20358394      -0.55412394       0.90187641       0.41815012
S       10.32600962       8.51964736      24.56657377       0.02007993      -0.51485055       0.04558515
Li      -6.63739188      10.56301970       9.99814887      -0.78177360      -0.28765738       0.32888479
Li      -0.79063097      12.22121652       5.87194736       0.82730750      -0.15178005      -0.11110903
Li      -6.78696309      12.72990211      10.74032806       0.31677553      -0.49545726       0.51663538
Li      13.07878675       2.95920635      10.13703906      -0.38777868      -0.71556956       0.29471514
Li       3.25619030      14.50885587       9.66649221       0.86058710       0.21664820       0.58992110
Li       7.92175394      10.23607065      12.57436130       0.05230332       0.83173543       0.08881261
Li      -3.38978871       1.31032320       7.94578385       0.40016271       0.34665607       0.28329961
Li      -4.73842073       4.09961554       6.99096585      -1.34472017       0.65135886       0.18538715
Li       1.00912603       0.23105492       8.49545308      -0.27461799       0.28478518       0.20889932
Li      -8.04849313      11.87641314       7.94789394      -0.59344742       0.04046030       0.32952392
Li      10.77027864      -0.39987817      11.40545169      -0.02243092       0.25684757      -0.39645030
Li     -10.80289253      11.86049227      10.69160622      -0.47847086       0.21731468       0.71820421
Li      -8.55926434       8.68186616       9.27328728       0.67975600       0.82716037       0.55393990
Li      11.97806174       5.50757814      10.51540849       0.38732134       0.57533279      -0.32757994
Li      -3.62907536       4.56572380      12.30896337       0.02071915      -0.11001143      -0.11557141
P       -2.80053905       3.58553678       9.78830088       0.57419243      -0.22848728       0.56225134
Li      -4.96123174       5.56405009       9.48905580       0.02247917      -0.15709100       0.43348715
P       -5.91615118       8.10150450       8.92840464      -0.56679967       0.46187771       0.95337675
