279
Properties=species:S:1:pos:R:3:momenta:R:3 LayerForceGeomOptConstraint=T E_ref=-1064.6876429519293 step=1900 pbc="F F F"
Li       4.37623276      13.37895232      18.19710272       0.14404933       0.15067682      -0.41576253
Li       6.77700278      11.87659517       7.99570546       0.79388325      -0.32581660       0.86339384
Li       2.87631914       1.35541386      12.58875549       0.78839474       0.15810050      -0.40516596
Li       4.00279394       6.22419523      22.29158407      -0.18660757       0.02632588      -0.21235040
Li       0.95481851       7.41627001       9.97078203       0.51687546       0.56604712      -0.34459430
Li       7.93680711       2.58842850      10.28363562       0.25268935       0.24104374      -0.64885604
Li      12.18263239       0.43888212       7.88370320      -0.48819384       0.40048487      -0.37994326
Li       2.28163356       5.19569837      11.13896744       0.06984606       0.31742332      -0.72011737
Li      -1.79809856       2.01857831       5.64250044       0.48748162       0.70624691       0.90644012
Li       6.94632797       0.05575216      10.24484163       0.07115807       0.15868835       0.31445858
Li       5.93138078      11.97343907      11.11859466       0.28419192      -0.52572690      -0.43037002
Li       0.53618549       5.62778110       4.03206024       0.29449998      -0.21815584       0.04198244
Li       3.55048249      -0.03991122       6.14704681      -0.14409604      -0.17368371      -0.76331024
Li       2.95658492       0.61333842       9.76115892       0.13939130       0.37669678      -0.55053618
Li      -2.11020038      10.55001092       8.68849075      -0.02129290      -0.12950701       0.64125560
Li       0.66208261       2.03517509       6.69436219       0.28713785       0.73776829       0.93638484
Li      -5.57954404      12.94218171      22.34329455       0.19447553      -0.24842208       0.27595073
Li      -0.86560650      14.22490544      10.57561431      -0.35452026      -0.57143090       0.47204506
Li       7.92302828      -0.66901410      13.07263100       0.17523749       0.08284693      -0.19948336
Li      11.52821941       5.66603498      21.48993475      -0.12733311       0.36576365       0.30520056
Li      10.07180601       5.06877996       9.63734639      -0.22674176      -0.31988940      -0.39818571
Li      -1.43628731       3.81184556       7.66914975       0.04274754      -0.10616332      -0.34054785
Li      -5.63169215      10.41311537       7.64029425      -0.49157437       0.41900049       0.89676049
Li      11.86648341       5.77423008       6.91833957      -0.76801361       0.64094653      -0.21028763
Li       5.49679194       1.99030321       7.82444735      -0.35879279       0.60686998       0.74006307
Li      14.92687146      -0.42316898      10.07804563      -0.18770711       0.06458884       0.75349668
Li      -8.00234683      10.85047550      12.49341396       0.04130387       0.38016948       0.41616404
Li       4.08971864       3.97180758       8.58645023      -0.76274423      -0.12989016      -0.35064697
Li      14.92528412       2.81104274       7.32717140       0.29607058      -0.30681945      -0.04430524
Li      10.86344657       1.83399230      10.07865646      -0.16718161      -0.04541808      -0.72151922
Li      -3.35059351       7.76712396       9.00049812       0.47462564      -0.26110769       0.55192633
Li       8.57199100       3.70036606       7.29779580      -1.08499013       0.33894286       0.17414996
Li       9.74961950       6.25242169      24.31146876      -0.54201686      -0.47584293      -0.17222788
Li      10.64619323       9.37691976      11.00347706       0.41914345       0.43083851       0.35768165
Li      -4.31325724       9.35416670      11.20091349       0.35547264       0.19765098      -0.52073860
Li      -2.06133235       9.67040391      22.81098880       0.12951470       0.00194109       0.55693609
Li      -0.14063222      11.74303762      11.64902838      -0.19462406      -0.37955723      -0.14245687
Li       3.50599726       7.32091580       9.32342092      -0.34677816      -0.13321369      -0.21453152
Li       0.24689685       6.71749909       7.35316925       0.28529327       0.34670997      -0.51360488
Li       0.83674086       9.49414783       7.81873684       0.20208903       0.00252958      -0.44754835
Li      -3.67516406      12.30607763       7.30554853       0.10871320       0.41640556       0.53758274
Li      -2.73482873       9.16291254       4.35613732      -0.05770330      -0.57391066      -0.53275601
Li       5.70867096       4.67395868      10.74212767       0.16796752      -0.48530405      -0.49579858
Li      -3.82222914      12.62198467      13.37019512      -0.51149517       0.02452264       0.35562278
Li       2.90392443      11.83194557      10.31407667       0.08308655      -0.23605338      -0.02942864
Li      -1.29542893       8.50797542      11.08796560       0.36508121       0.19482905      -0.47831504
Li      -1.89682226       5.78496504       5.48147592       0.82319946      -0.35644744      -0.11982146
Li       0.85578572      12.81069182       8.42723138       0.14633791       0.12098485       0.56214359
Li       1.38142685       7.80851053      23.12694143      -0.34003976       0.22905735      -0.21852906
Li       1.63870812       3.15191636       9.70987108       0.04013177      -0.13790374       0.11109020
Li       3.92241599       8.96386907      11.99028395      -0.23073923      -0.78802613       0.27330231
Li       9.34410308      10.65634729      23.74392427       0.26531469      -0.00515861       0.04064352
Li       4.81349998      10.04754243       9.03173033      -0.07466148      -0.51868721       0.08210005
Li      -4.95984737       7.68369327       6.83513903      -0.14194095      -1.02962211       0.87699732
Li      -2.11857043       8.03073731       6.69338993      -0.38575687      -0.05005754       0.57901334
Li       3.34383452       9.65168097       5.85110122       0.05646702       0.35528411      -0.06981429
Li       0.63954001       9.48352938       4.68783335       0.58229328      -0.23552101      -0.26610506
Li       7.39928182       5.93164971       8.61331342       0.01723604       0.37589210       0.34643232
Li      -1.97649868       5.88378033       9.67986528       0.39398472      -0.00670020       1.46172567
Li       3.36911490      11.38101995       7.53971372       0.10262430       0.38436022       0.23144704
Li       7.14548586       8.71941287       7.05884408      -0.40735088      -0.85509461      -0.19720906
Li       5.71176063       7.03747400      13.16856663      -0.69841894      -0.85342396       0.43714287
Li       1.83711616       4.14280431       6.73872910      -0.44977134      -0.58749879       0.00714421
Li      10.44084134       7.96090708       8.60430986       0.14142734      -0.12045984       0.42936696
Li       2.69563746       2.90447014      20.64534304       0.02569379       0.24040008       0.88185515
Li      -1.67540138       5.34684907      18.35581037       0.08183366       0.85210865       0.02649451
Li      -3.46479572      14.16451861       9.26906376       0.31987877      -0.42562188      -0.63315160
Li      -0.39205608       3.24498921      23.95851887       0.35563553      -0.16821142       0.00923432
Li       5.11352142      -0.12022822      18.27073932       0.95774184      -0.17663780       0.59320688
Li      -0.11912235       0.05853360      12.97147563      -0.14660777       0.54370571       0.56785578
Li       3.14082462       1.67080319      23.41672474       0.16671538      -0.05444531       0.17316262
Li      -1.73275186       1.30530053      17.08646568       0.51600273      -0.36294297      -0.26674121
Li       2.30003871       4.37967467      16.10495996       0.54703327       0.27421678      -0.09962123
Li       3.32697354      -0.42830240      15.42223170       0.51967127      -1.06672845      -0.29969732
Li       5.33209055       4.48428415      20.38101935      -0.48043571       0.81313662       0.17089281
Li      -1.23594280       1.60498396      10.12786363      -0.56650066      -0.78064391      -0.09961014
Li       5.66057023       1.33978624      22.17649155      -0.24378102      -0.20889857       0.25962271
Li      -3.97984286      15.89261927      13.11012792       0.15395501      -0.23833279       1.32064084
Li       0.08850165       3.24797196      18.61891003       0.31272670      -0.51646027      -0.59026282
Li       2.48697726      -0.15759012      18.61881452      -0.21047696      -0.27251298       0.06432063
Li       2.66530337       4.50334595      24.38829381       0.33731959      -0.56816767       0.28248737
Li       9.22510595       2.20634400      12.58529350      -0.46165898       0.38120697      -0.51783906
P        0.84060483       1.16507805      15.66098135      -0.47344566      -0.15032364       0.59815398
P        0.16642942       5.46011987      21.44072989      -0.61093661       0.01719504       0.46830242
P        4.03118766       3.03464595      10.86920664       0.43797075      -0.30964632      -1.89899020
S       -0.90621338       2.02979825      14.70925210      -1.02159218      -0.76722944      -0.24459886
S       -1.53433327       6.41848718      20.77399413       0.26431710      -0.62507751      -0.29947242
S        1.73541021       5.44167267       8.78302561       0.61921067       1.39294282       0.61821038
S        2.66387801       1.98517110      15.10929068       1.84345568       1.27343798       0.39251755
S        1.79522893       6.43979955      20.75106856       0.43649431       0.81515405       1.88539227
S        6.60944211       3.80214407       8.53416858       1.51198977      -0.52194862      -1.65843826
S       -3.24401967      13.67965538      15.62273171       0.51091367       2.00013400      -1.11339461
S        0.35133196       3.49512599      21.17221996       2.06193330      -1.83604569       0.00520829
S        3.03378332       1.82525213       7.59228499       0.50735237      -1.01524350       0.04931426
S        0.61509692       1.27088922      17.76299671      -1.98196078      -0.80445540       0.84843972
S        0.27006051       5.93701873      23.66864219      -0.92003853      -1.02964223      -0.03771349
S        4.90288573       1.14869683      11.04180691      -0.10905093       0.41936372      -0.63711469
S        4.12036531       3.78621362      22.51846156       0.15427990       1.09484035       0.67279471
S       -5.60494284      11.06892285      12.49374783       0.44612040       0.98046930       1.50552954
S        0.40695706       5.11507294      17.21022621       0.66654031      -0.79255935       1.56023183
Cl       1.55919799       2.47126356      24.78698158      -0.25954599       0.22330525      -0.64348447
Cl       3.81786976       4.13079287      18.72774550       0.07436797       0.32126202      -1.27961942
Cl       0.66000013       5.21345071      12.91641081      -0.98530266       0.38346650      -0.82179683
Li       9.62160753       0.09451789      23.60412177       0.16913552       0.62125566       0.13123569
Li       5.36873981       5.32745067      17.39821069       0.36787156       0.30611595       0.17488313
Li       9.44782577      12.38421858      13.45506241      -0.00792861       0.45734853       0.33516203
Li       6.41144687       3.80161452      23.37590655      -0.30891075      -0.13817570       0.29858927
Li       6.94747500      11.96528049      17.31263932      -0.04115524      -0.02109336      -0.01680586
Li      11.90641191       3.40672446      14.18924787      -0.41802732       0.11654879      -0.26807445
Li      11.98437471       2.43256078      24.28681687      -0.31363772      -0.49732127       0.28770396
Li       7.74835628       3.10343988      17.46968025       0.49116713      -0.10507709      -0.38236845
Li       9.72332746       5.47142454      13.10818051      -0.16276326       0.41160599       0.26017641
Li      10.65731729       0.99461825      15.07206345       0.38069307       0.29116195       0.19929532
Li       9.24263639       5.00752808      19.09642201      -0.19191339      -0.07453097       0.02164709
Li       6.14570449       2.00343196      12.95664140      -0.60699737      -0.00200045      -0.36944514
Li      11.67208195       2.64417495      21.43764966      -0.09446552       0.88277520      -0.46406656
Li       2.00050185      13.15195214      12.77674892       0.38227607      -0.02177086      -0.49328502
Li      12.20909157       2.46484911      18.15029770       0.09543286      -0.06870165       0.89226173
Li       9.85803894       0.20530392      17.70103071      -0.10306855       0.89971273      -0.62509771
Li       9.13946117       2.94775826      22.58887031       0.21584067      -0.61102678      -0.58010707
Li      -0.01054301       3.07569273      12.58984847       0.09234636       0.56741128      -0.91659670
P        7.63681747       0.39182269      15.58634996      -0.90128570       0.72095260       1.62248347
P        7.65005547       6.06623717      21.73131964       0.03951115       0.06773282      -2.23672622
P       12.13813404       3.19908213       6.94375703      -1.44648873       0.36033066       2.25211524
S        6.00754404       0.18487166      14.34705288      -0.06968196      -1.20076016       0.46516876
S        5.84334444       6.82087187      20.80687830       1.04773333      -0.53747515      -1.86275151
S       10.38418161       2.23216821       7.65615427      -1.17072058      -0.46357069      -0.74749388
S        8.56926369       2.23588236      15.00632591       1.48768445       0.47092500       0.21228851
S        9.17079114       7.02588686      20.83300157      -0.84502512       1.48227114      -0.24792473
S       -0.23045445       3.97186138       5.62837536      -0.96910162       1.77406209      -1.27355266
S        0.57507956      12.22052957      14.49744071       0.91005402       0.67026655       0.40166072
S        7.70600255       4.13769352      21.03546593      -0.84892748      -0.90733919      -0.56885106
S       12.96608000       0.63221470      10.04919168       1.69068075      -0.67437345      -1.59418527
S        7.09449687       0.68920513      17.57250024       1.43628307       0.73669617       0.64118114
S        7.32038591       6.22757383      23.73256551       0.01939316       1.21860594      -0.71750193
S       11.22603627       3.41542087      12.04189359      -1.14706554       0.10549188       1.92596734
S       11.11131849       4.21117846      23.15911635      -1.41581513       0.19195799      -0.26004592
S        8.82985023       0.43760753      11.12021092       0.88525181      -0.29936603       0.28574660
S        7.60329050       5.53354308      17.41140393       0.01334973       0.51852791       1.75298145
Cl       7.43960260       1.86819473      23.83609554      -0.86255135      -1.39489424       1.52126203
Cl       9.97022701       2.79564430      18.17630939      -1.18423272       0.41347858       0.99434643
Cl       7.68413877       3.86848437      12.02322002       1.19373715       0.85968177       0.27215326
Li      -1.91034569      11.41262911      18.58263916       0.11795524       1.01848837       0.01655042
Li      -5.95035223      11.51721693      19.81761549      -0.08256077      -1.05233208       0.13005173
Li       2.26059885       7.25210267      13.00431370      -0.17987197      -0.08404762      -0.66675242
Li      -5.29114233       9.84034041      22.00632686       0.64376882       0.53624744      -0.27634701
Li       2.42413884       5.88463828      18.59044673       1.26913924      -0.39641582       0.18200670
Li      -3.40769904       9.93813449      13.88112638      -0.31753387      -0.43313889       0.40622873
Li      -2.73972776       6.34785251      23.04067035      -0.39489597       0.09803897       0.88116335
Li      -4.76825198       9.44511769      16.89164406      -0.11611185       0.28505862      -0.36906414
Li      -1.49951449      13.47281553      14.04134874      -0.06915482       0.42589370      -0.33177628
Li      -1.24982191       4.04921368      16.04436561      -0.19953217      -0.20195708      -0.38070602
Li       1.15726969      11.32970162      20.12866281      -0.34784951       0.25827210       0.26481816
Li      -5.86766337      11.98681323      15.46250376       0.52034656       0.02683485      -0.27518849
Li      -0.30793312       8.59438357      20.25037765      -0.66066270      -0.59309389       0.22973615
Li      -1.35724370       6.31031009      13.21494354       0.63147274       0.48122960      -0.72193553
Li      -0.63326141      10.34388470      15.52460741      -1.18195153       0.27481201       0.39838048
Li      -0.10736840       7.36540976      16.97096021      -0.73451077      -0.41031351       0.61503790
Li      -0.55521399      12.27744836      22.72959566       0.57975749      -0.01417340       0.00335960
Li       5.14142632      12.36253538      14.59510428       0.47630909       0.56087392      -0.38891571
P       -3.02214082       7.37802497      15.39463819       0.07641013      -0.43813887       1.03762429
P       -2.97350100      12.51367307      21.16877579       0.21812411       0.44114978      -0.83709120
P        2.40695343       9.43587771       9.71476809       0.56811459      -0.25556376      -0.17955114
S       -4.95258839       8.11049701      14.90075924       0.08880047      -0.59267577       1.05922670
S        3.22183916      -0.24589579      21.83064709       0.14083281       0.22003438      -0.24395332
S       -0.99645284       8.17955079       8.69090916      -2.17292524      -0.55941811       0.51544844
S       -1.56520401       8.46082446      14.38181475       0.54299099       0.50895372      -1.41131666
S        4.17650885       0.78274786      20.28867283       0.78605138      -0.61092821       0.25262368
S        1.36822993      11.08864772       6.10475005       0.47714092      -0.23378311      -0.05358129
S       -2.91580230       5.41468340      14.72538915      -0.68169352       1.54609943      -0.66860408
S       -3.45550300      10.52944960      20.46600237       0.22522175       0.14479274      -0.18161728
S       -0.88080502       7.73598574       4.70914331      -1.62200140      -0.28745482      -0.62469007
S       -2.71480584       7.46547869      17.36738575       0.66830500      -0.19020149      -0.10987832
S       -3.04579063      12.30194799      23.20965255       1.34030602       1.63429694      -1.51226549
S        1.42247533       9.48941343      11.55524856       1.26171419      -1.68055214      -0.44594882
S        0.30183794       9.99763047      22.30688800      -1.16518634       1.14599400       1.49309471
S       -3.20590389       6.97975794      11.27412339      -0.59713759      -2.32510142      -0.31157001
S       -3.12336980      11.60900005      16.07175098      -0.32536208      -0.25273303      -0.38005292
Cl      -4.17069823       8.20250729      23.15749924      -0.95471440      -0.34746962       1.87193830
Cl       0.10122004       9.98715826      17.98238794       0.60241601       1.24705591      -0.54670939
Cl      -2.31679620      10.58244009      11.13184576       2.42123865      -0.43427368      -1.06147682
Li       5.43389219       9.12495834      21.10116199       0.03560008      -0.90135187       0.03189526
Li       1.63811299      12.89488400      16.52691080      -0.22863212      -0.15740836      -0.21740375
Li       8.23564205       7.49519128      11.04855393      -0.12675254       0.15129923      -0.24150710
Li       2.61290017      10.19444785      22.57529349      -0.19867234      -0.64160746      -0.19091083
Li      11.45433036       5.08017648      16.82204463       0.20195432       0.14340852       0.04271347
Li      10.94579120       8.03106134      13.12482764      -0.09277261      -0.04608247       0.04211748
Li       6.26797657       8.60332043      23.91568834      -0.23240831      -0.48935214      -0.26835709
Li       2.57034961      10.37328578      18.13661222      -0.03437809      -0.04345195      -0.74086569
Li       9.15042038       9.29133286      14.86875737      -0.59802333       0.03111447      -0.56700001
Li       7.24362876       6.50095956      15.42928609      -0.00861020      -0.02308361       0.48279960
Li       7.10297445      11.05594205      20.23914725      -0.41814550      -0.53270363      -0.10167873
Li       2.54351875      10.69829246      14.56391525       0.05077592       0.05541805       0.22334185
Li       8.96232262       8.79475376      22.28292649       0.69655386      -0.78040352       0.20654357
Li       3.69561163       4.55455060      13.12518703      -0.32595716       0.68019900      -0.26210081
Li       5.22339345       9.74623091      16.94976636       0.60027518       0.34015922       0.17956900
Li       7.64508213       7.55768545      18.90499038      -0.60801364       0.67249819      -0.42766655
Li       6.27453845      12.38566700      22.52375088       0.58476099      -0.01276005      -0.37804342
Li      -5.37603181       6.97796135      12.55623124      -0.33081568      -0.24843173       0.52258322
P        3.49083621       7.61522352      15.60487054      -2.02258755      -0.07487119      -0.74102943
P        3.94081434      12.38713868      20.78132715      -0.35930048       0.61019145      -0.13491673
P        7.57970596       9.93449638      10.01365938      -0.45558620      -0.33389783      -0.14932052
S        1.60440293       8.03503637      15.06260737      -0.29624993      -0.29116907      -1.42737552
S        9.99311282       0.65992325      21.36817611      -0.13252047       1.23399796      -0.10180215
S        5.29458198      10.19630469       6.71545527       0.74170489      -0.47642387      -0.74668176
S        4.69598436       8.99215149      14.51306890      -1.10135042      -2.10349194      -1.05539323
S       11.83793936       0.12449869      22.27763220       1.23446167      -0.95897763      -1.24329851
S       -3.53016896       9.99314157       6.41309982      -0.06018116       1.02993928       0.54385671
S        4.41052109       5.64307072      15.21589694      -1.17025144      -2.48807271      -0.45141229
S        3.46901142      10.36720381      20.29101491       0.24292294      -0.09379768       0.56423642
S        9.41316474       6.01592471       7.58509299       2.61873459      -0.57373870       0.49851787
S        3.79962564       8.05850095      17.66792405       0.90610548      -1.75705148      -1.43364037
S        3.79557789      12.48702370      22.80210823      -2.59658867       0.42894486      -0.27675894
S        6.43105537       8.16402129       9.70113181      -1.09685797      -0.42672923      -1.27915633
S        7.17180005      10.19323515      22.29654209       0.04762207       1.10935820       2.30267988
S        4.04803267       6.52484555      11.64577141       0.90970827      -0.28487414       0.20704767
S        3.84827222      11.83711876      16.54969802      -1.40296563       0.75135755       0.06737039
Cl       3.69782606       8.14593591      23.75943919       0.99945944      -0.68713521      -1.07914990
Cl       7.17326015       9.80346983      18.37290993       0.15337384      -0.04304110      -0.15119403
Cl       3.83896197      11.90907881      12.77011509       0.98915204      -0.64815480      -0.44008771
S        9.25767031      10.21546433       8.84579104      -0.11468326       1.04637868       1.64701923
S        1.01597075       1.03890549      10.95242359      -0.03066382      -0.37663700       1.26667694
S        1.20565629      13.51362723      10.61913243       0.29145312      -1.02767034       0.53348166
S       -1.37710240       1.05018026       7.71086345       0.22491060       0.50168047      -0.10795887
S       -8.78473547      11.18393782      10.11313166       0.71887039       0.00504005      -0.63411633
S       -5.40237778      12.80169648       8.91275989       0.36709245       0.32913393       1.17716937
S       13.05302503       4.15235552       8.64249226       0.35542087      -0.21394649      -1.57792288
S       -1.63730589      12.86898585       8.09124689       0.20525877       0.33817992      -0.85731946
S        4.83590211      12.62659168       9.17743736      -0.18319425       1.32740849      -1.61484056
S       -5.17491891       3.21152713       9.53120342       0.98979706      -1.49253007      -0.67198210
S       -3.46709596       5.87374052       7.14769267       0.75830767       2.01976101      -0.38947477
Cl      -2.71932916       3.46648864      17.79703753      -1.58338664      -0.79995162       1.93979575
S       -2.80457051      14.09740380      11.91644952       0.77097481      -0.80681207      -1.31926445
S       -1.41254042       5.30030742      24.77043847       1.51862663       1.99060035       0.47839562
S        3.70889856      -1.47476339      17.36991706       1.84727548       1.96332006       1.46883435
S        4.23667471      -0.11888260      23.69358508      -0.70526195      -0.12799193       0.21541123
S       -2.56497982       2.85931584      11.82732099       0.55118128      -1.76577182      -1.34610862
S        0.83754133      -0.75092259      15.02542150      -1.27908822       1.30277284      -0.39138613
S        5.85018949      13.11969387      20.13215865      -1.01145551       0.73298961       1.03156403
S        7.59222192      12.91325986      14.81553895      -1.29659694      -0.25961574       1.47655210
S       11.75959767      -0.02103722      24.39951990      -1.46847649      -0.01520533       0.04747057
S       10.72242866       7.12058907      10.95060701      -0.04713594      -1.25633304       0.28209782
S       12.96078132       5.25063194      15.07715899       2.14167989       0.08622286      -0.36989430
S       12.09069701       0.16314657      16.90277281      -0.67627993       1.63033222      -0.78755051
S       12.63908912       1.98285308      15.96339063      -1.39463795       0.36003036       1.41947605
S       12.02592317       5.61753382      19.04999290       0.51708092      -0.79364813      -0.68761342
S       13.05836430       3.94474928      19.75124262      -0.18061822       0.65391426      -0.81487901
S        9.06582641      -1.07857052      15.12152181       0.49257217       0.07738832       0.61534716
Cl      -6.51495281      10.94021815      17.50385046       0.68975134      -0.78189724      -1.09740194
S       -5.09725453      14.24369933      14.62024171      -1.03949390      -0.70147942       1.19667565
S       -4.43821089      13.82004950      20.54230005       0.69823089       2.77237343      -0.27564715
S       -7.07039061      11.32544439      21.89953294      -2.27601447      -0.28895249      -0.67179013
S       -1.10111690      13.00812853      20.41161609      -0.21873349      -1.13614791      -0.45571409
S        2.53804087      13.50188470      19.87889325      -0.25947139      -0.20243996       0.23483231
S       -6.86553341       7.13600593      10.68387137      -0.86755480      -0.07430515      -1.46729013
S       11.15844759       6.22947325      14.66257368       1.47581445      -0.56748116      -1.07820898
S        8.06977852       7.11827276      13.45194834      -1.67940676      -1.49303887       0.85759581
S       10.43116263      10.41121821      13.03342421      -0.20769131      -0.13976659      -0.19325281
S        7.19818709      10.85443904      14.90288447      -0.89727782      -0.57192821       0.15809089
S       11.06916073       9.04988544      23.22932530      -0.48914104      -1.80835406       0.33216586
S        9.99862168       8.68485194      24.99843805      -0.47950801       0.33498736      -0.25313900
Li      -6.27461465      10.98434154      10.31355507       0.31007167       0.20458012       0.73296842
Li      -0.80431887      11.98050748       6.03422164       0.37778994      -0.25540056       0.23305237
Li      -4.97593056      12.93369138      11.32457391       0.53690692      -0.55662613       0.24840580
Li      13.04124966       2.73135266      10.74999050      -0.48602392       0.86202042       0.21680605
Li       3.51956770      14.37347504      10.05290791      -0.17485205       0.18738688      -0.41285039
Li       8.03416523       9.78693257      12.71740997      -0.42187106      -0.41664764       0.21845265
Li      -3.72011890       1.13033490       8.57151429       0.69920141       0.35364504       0.45755010
Li      -4.40954698       3.83393591       7.51603815       0.04592827       1.18650597       0.05574504
Li       0.16183388      -0.19287281       8.95794747       0.66625323       0.39795614      -0.33056910
Li      -7.73924324      12.84981418       8.92912180      -0.02732716       0.40529999       0.44168108
Li      10.98289642      -0.79297504      10.71387988      -0.29078843       0.23250058      -0.04199127
Li     -10.60462601      12.14649985       9.58521750       0.46597056      -0.15375389       0.19949771
Li      -8.41656115       9.05493741       9.73040610       0.05045897      -0.11006734       0.08021918
Li      12.49066744       5.43724255      11.27324106      -0.20524556      -0.06867874       0.87852630
Li      -3.51764962       4.93190395      12.20370025       0.10689273       0.97750613       0.44059361
P       -3.05858638       3.42657832       9.87970764       0.81739615       0.82214917       0.09232569
Li      -5.46094164       5.84410938       9.46124230       0.06454534      -0.06339264      -0.43285506
P       -5.84953887       8.41047759       9.32133759      -1.18698628      -1.44690917       1.30279839
