279
Properties=species:S:1:pos:R:3:momenta:R:3 LayerForceGeomOptConstraint=T E_ref=-1038.790602611252 step=500 pbc="F F F"
Li       2.95461014      14.75435033      22.41426281      -0.15647950       0.58993389       0.45810113
Li       8.12346530      11.58582654       7.58986079       0.02044847       0.20170502       0.31341088
Li       3.22174050       1.57949890      12.15737322      -0.06674555       0.22821378      -0.22791285
Li       3.87565410       5.82999583      22.52395430      -0.12474083      -0.27194789       0.26191079
Li       0.23764997       5.04617189       6.91719178      -0.49837134       0.55214947      -0.28420697
Li       6.10148930       2.36021636       9.96270455      -0.17812129       0.98299004       0.30055996
Li      10.35200415       1.84768117       7.66003633       1.14157060      -0.06082336      -0.40633939
Li       2.13672520       5.00286625      10.33588224      -0.32729879       0.96958119       0.46928115
Li      -2.23876933       0.95972923       5.90586821       1.52550171      -1.17860524      -1.17831858
Li       5.26849701      -0.32609863       7.27014081      -0.59641168       0.07367070       0.81895519
Li       3.18464917      12.88323927      10.77585793       0.35716494      -1.06913681      -0.38128628
Li      -0.11748771       4.89266966       4.03386245      -0.04412050       1.00556552       0.19182740
Li       3.54980285       0.37358010       4.54170442       0.08398291       0.66520647       0.26690301
Li       2.28938980      -0.38537466       8.96604997      -0.12973464      -0.03492890      -0.91605798
Li      -3.02205564      10.33128214       4.92423328       0.10885994      -0.19392120       0.36788170
Li       0.86798621       1.82275755       6.51176478       0.72712408      -1.15896070      -0.09119305
Li      -5.83115398      12.84420257      22.48421750       0.07978309       0.36550433       0.55659045
Li       0.14840852      13.73300830       8.77536029      -0.38985785       0.45116441      -0.40621971
Li       6.77301204      -0.61165052      10.06294116      -0.00688987       0.46496562       0.59532417
Li      12.81323255       4.34819638      22.76349174       1.30920139      -0.03509609       0.02219962
Li       8.69315643       3.38914325      10.19970517       0.22241524      -0.00403576      -1.24198784
Li      -1.31708094       2.55768156       8.23241235      -0.62482729       0.75619449      -0.25160997
Li      -5.90486933      10.64604172       6.35161231       0.71612091       0.13136877       0.41025830
Li      10.78298319       5.87126581       7.08557565       1.31284928       0.06992477      -0.54302352
Li       6.43853895       2.58479180       6.67260864       1.05177047       0.63928914       0.24921997
Li      12.72580044      -1.20797800       6.61451537       0.02505491      -0.48795515      -0.17115903
Li      -7.22777010      10.17598673      11.46601617       0.16008129      -0.55385985      -0.48281069
Li       4.35953403       3.71682069       8.34773663       0.48615194      -0.49737464       0.74694009
Li      13.52735951       2.38552314       6.89814944      -0.88672141      -0.04081999       0.60845793
Li      10.44856492       0.71128732      10.27804499      -0.28776174       0.15221309       0.58924416
Li      -1.95697912      11.61555573       7.87142854      -0.34963325      -0.46613523      -0.62115485
Li       6.91234781       5.77729445       6.30841264      -1.35034880      -0.82922871      -0.51127872
Li      10.77937511       6.04032515      22.73908864       0.63229247      -0.79225144      -0.39997443
Li      10.96750811       7.90059605       9.51040287      -0.70630057       1.30113645       0.71416177
Li      -3.85919192       9.08484126       9.96215998      -0.07925670       0.24124868       0.65628471
Li      -1.59315691       8.67203341      23.28670308      -1.07977152       1.19325191      -0.00267154
Li      -1.21051179      11.99654645      10.89900132      -0.07190470       0.38154307       0.16410687
Li       2.51267102       7.42446358       8.95347911       0.75602846      -0.04283542       0.16018497
Li       2.39665801       6.49076188       5.76751478       0.14107869       0.13301124       0.25551705
Li       0.22811423       9.47934878       6.61625169       0.50818765      -0.62785172      -0.19444274
Li      -4.68901854      13.03473463       7.30514191      -0.19838329      -0.31886477       0.36898327
Li      -1.09268476       7.99589174       2.86445888      -0.38175186       0.44226586       0.21763675
Li       5.37527723       5.72004628       9.64521347      -0.06474828       0.40574385      -0.01965248
Li      -3.95314107      12.07756881      10.74726252      -0.28670742      -0.48193337      -0.07213091
Li       2.13489121      11.69732656       8.41560497       0.29595529      -0.60063107      -0.32575796
Li      -0.98557252       8.15790521      10.43766749      -0.23057701       0.42430018       0.19889157
Li      -2.72115316       4.48247968       6.37893337      -0.48235557       0.42177873      -0.89616599
Li      -0.41340685      12.10983340       5.40770643       0.21791432       0.56122827       1.63150743
Li       1.31759952       7.66224567      23.83132917       0.06998727      -0.34661645       0.25053908
Li       1.98363242       2.38833466       9.20880386      -0.37726572       0.71830544       0.48278306
Li       3.47431750       9.72157058      11.72637287       0.11802396      -0.07806295       0.56553898
Li       9.54589108      10.15814929      23.39276508       0.42639365      -0.08212942      -0.06536602
Li       5.46133059      11.04658912       8.39865717      -0.20042829       1.00177643       0.86202240
Li      -5.06541650       8.21515075       7.35551732       0.06191850      -0.99242261      -0.57905764
Li      -2.08996716       7.40138555       5.77883903       0.52531691       0.46824584      -1.01518045
Li       4.30767926      10.16948232       5.81177282      -0.41515881      -0.20968193      -0.47615719
Li       1.47143072       9.46915755       4.31546070      -0.40202741       1.40358840      -0.30509088
Li       8.63564579       5.96956149       8.60616873      -0.11454581      -0.62245954      -0.87838902
Li      -2.72461619       6.09978887       8.78484545       0.21274152       0.39657046      -0.06179898
Li       3.53786054      12.66462950       6.46627488       0.67336752       0.88810675      -0.33950423
Li       6.77288545       8.41312168       6.93311078       0.10361208       0.20784458      -0.02072296
Li       6.09512626       8.32202731      10.34933281       0.67192026      -0.00270652       0.65744627
Li       3.42221950       3.54155832       5.75066921      -0.82218734       1.46321563       0.07463270
Li       9.44827632       9.60893356       6.17841956       0.57576608      -0.35213981       0.70477319
Li       2.42241733       2.42248657      20.91161091      -0.30640871       0.61870458       0.00061321
Li      -3.63242899       5.60233531      17.14263752      -1.67069059      -0.11173821      -0.16706592
Li      -3.13519967      14.69533086       9.73654010       0.21821216      -0.38379685      -0.42647396
Li      -0.86761001       2.65892274      23.05518326      -0.08840418       0.39454051       0.18287669
Li       5.66452137      -0.23464558      18.53529799      -0.43319247       0.10033711      -0.21243522
Li       0.89963966      -0.11415486      12.96099169       0.74724985       0.60608175       0.45498276
Li       2.70465908       1.41424920      23.69660627      -0.16032131       0.95239533      -0.37865226
Li      -1.05787473       3.81165711      17.33942547      -0.74654636       0.15292536       0.02423912
Li       3.09083076       3.91205717      13.80395563       0.54952300       0.36261710       0.47405242
Li       4.26101234       0.45880537      15.68600337       0.67981002      -0.51542429      -0.19114879
Li       5.17727540       3.85346665      20.75919248      -0.74088459       0.80911320      -0.46935965
Li      -1.05129018       0.68903423      10.53175138      -0.36721871      -0.42016932       0.27012503
Li       5.40315883       0.67203706      22.65902224      -0.61782679       0.30870194      -0.42451698
Li      -4.36959285      13.54934438      12.90647918       0.22496479       0.12963729      -0.47948311
Li       1.78687140       3.62159223      17.79231642      -0.43338995       0.12423390       0.29981609
Li       2.60983372      -0.27459658      18.26909420       0.55807700      -0.05258712       0.93663548
Li       1.54666523       3.80144751      23.61318519       0.63458421       0.04993389       0.34320766
Li       7.75070498       0.59525959      12.79549711      -0.07519225      -0.04185082       0.25331178
P        0.49684214       1.00000763      15.50323741      -0.27570437       2.08058205      -2.77157287
P        0.17619006       5.59463806      21.56816810      -1.93621916       0.13357025      -0.88648184
P        4.13410791       3.91004665      10.64861536      -1.19782685       0.92514059       1.54212028
S       -0.94836920       2.28942648      14.97760394       1.06773388      -0.19811822       0.14740110
S       -1.28583353       6.68345008      20.78030023       0.06230554      -0.85141232      -2.03635722
S        2.43398083       4.78216086       7.52155857       0.19984883       0.93755766       0.77941630
S        2.45073827       1.59491781      14.47507359       0.56950923       1.24225881      -1.06914927
S        1.97486761       6.56606268      21.35851585       1.45265902      -1.70109711      -1.15662367
S        6.60575527       4.39674411       8.08392470       2.01101670      -0.28309753       0.85349676
S       -5.44818816      11.75465878      15.75863760      -0.29300857       0.64795362      -0.66355184
S        0.26325954       3.69881915      21.04284622       1.22394304      -0.01352439       1.12671856
S        3.79655002       1.45613314       6.79065801       0.60453162      -2.88983761      -1.72940622
S        0.92883582       1.20562605      17.55273491      -0.30317622      -2.62761413       1.50577247
S       -0.33208824       5.69022979      23.70291184      -2.18533886       0.26928160      -0.79695532
S        4.98147062       3.21163818      12.43796455       1.43433683       0.64283038      -0.51289514
S        3.95479447       3.33743063      22.59936896       0.62530227       0.28478210       0.40266319
S       -5.95172447      11.91781730      11.86788038       2.50935687       0.14834099      -0.09507710
S        0.60906664       5.62479281      17.72402063       0.68264352       0.96137125       0.09739115
Cl       0.67216918       2.03878543      24.52107485      -0.76433824       0.29514972      -0.32548811
Cl       4.20268041       3.78219393      18.74969513       1.17859696      -0.09383352       1.42532105
Cl       1.26319411       4.91315726      12.80711765       1.40867742      -0.66483931       1.49645395
Li       8.75005710       1.20577937      22.25299331       0.72406683      -0.98498963       0.20834402
Li       5.26901333       5.22756685      17.00095788      -0.09493175       0.55420430       0.02900439
Li       8.19151101      12.67260527      13.40849888       0.04163001      -0.34075146       0.28505389
Li       5.77042340       3.43571026      23.96551557      -0.74383297       0.02732885       0.10114608
Li       5.71859741      12.65875069      18.21110444      -0.36533679       0.04168294       0.32766417
Li       9.96611662       3.05002859      12.75605966       0.61031540      -0.02495226       1.45592199
Li      11.05976140       1.46333167      24.27485202       0.62758493       0.12986203      -0.81848954
Li       7.83018956       3.30929261      17.80299820      -0.17247742      -0.16883743      -0.15759327
Li      12.88721457       7.06546596      13.38997910      -0.58897330      -0.22102780       0.11456402
Li      10.90158326      -0.01073374      14.77996859      -0.39956723       0.51902989       0.60537349
Li      10.11044992       4.37799425      20.68362306       0.58429872      -0.69543071      -0.35749041
Li       7.19039891       3.68512021      13.70207442       1.11390831       0.57640738       0.82274852
Li      11.84611043       2.25702383      20.77645712      -0.44044469       0.01330195       0.15127678
Li       1.43262895      11.64837278      12.62009326       0.96777789       0.11067586      -0.00966998
Li      11.04702973       3.40956740      16.50430665       0.09038037      -0.25493354       0.27727197
Li      10.07506075      -0.25499686      17.95401509      -0.34338490      -0.02651424       0.69065117
Li       8.79458256       3.64536592      24.29535524       0.07367210      -0.19893422       0.23374602
Li       0.36336610       2.75207390      13.22113718      -0.09317314       0.08978609      -0.45877850
P        7.96750716       0.74648128      15.50369963       0.01850921       0.10757291      -0.59877895
P        7.51563783       5.61981411      21.68112071      -0.01607057       0.77424309      -1.06277756
P       12.15009422       3.22117809       8.94666853      -0.11810502       0.14179514       1.03304765
S        6.19407060       1.37079644      14.58632688      -1.18985728      -0.12123776      -1.84223760
S        5.83986334       6.68538827      21.04749046      -0.21846243       0.81273538       0.38002430
S       10.41568696       4.36330129       8.71713666      -1.12094277      -1.31802530      -0.04336673
S        9.22458478       2.31084647      15.00244870      -0.76826637       0.74678152      -2.82441290
S        9.24467886       6.81049264      21.04962685      -1.55341063      -0.11074951      -1.00420369
S       -0.72078836       3.18678619       5.66961004      -0.63848258       0.52531778       0.44971830
S        1.12066958      12.24731125      14.79614939      -0.67031350      -0.75000937       0.13162454
S        7.86928938       3.85745871      20.80782312      -0.58302646      -0.98471776      -0.43779517
S       11.52698280      -0.25570005       8.30804615      -1.05222773      -0.67193023       0.90517745
S        7.81766970       0.79726521      17.62151191      -0.04181379      -0.03522331      -0.83137058
S        7.31822994       5.56448532      23.74990325       0.06640632       1.01862020      -1.34354975
S       12.23657839       2.78646399      11.03549096      -0.33699719      -0.26718899       2.29230401
S       10.80387479       3.62570418      23.30013496      -0.03368007       1.57446545       0.29666242
S        8.18148725       1.19022694      10.59049665      -0.55830154      -0.36748541      -0.74146884
S        7.78916393       5.59965468      17.23279068      -0.02574129       0.24080156      -0.88383585
Cl       7.46631952       1.69396779      24.11428115      -0.42710385       1.60596997       1.45180987
Cl      10.63486285       3.33517742      18.76469252       0.73997669       0.53778153      -0.12037662
Cl       8.43000229       4.84594721      12.14181773       1.13712643      -1.89736525       0.21150694
Li      -1.06254103      10.74927325      19.65533581      -0.91211351      -0.39729094      -0.65130187
Li      -5.97867671      10.20132033      20.90015049       0.05154628       0.26480438      -0.31306018
Li       1.91860792       7.27122191      12.48482292      -1.00796437       0.26357253      -0.26574532
Li      -4.63087438       9.89540067      23.34646736       0.50425733       0.14009940      -0.26165363
Li       2.65426000       6.33783533      18.44729789      -0.56859860      -0.20687300      -0.81151176
Li      -2.33788910       8.37423476      13.17037799       0.24118547      -0.20193680      -0.40752491
Li      -2.98511236       6.42951053      22.45978668      -0.05980846       0.71166169       0.57642577
Li      -4.68950174       9.80807086      18.04623318       0.83531465       0.34956645      -0.60564699
Li      -0.17873708      14.37911465      12.29893750       0.15078854      -0.76709090       0.61254856
Li       0.35674412       6.97820588      15.95971898       0.37183690      -0.33402077       0.09186361
Li       0.98980705      11.70365880      21.86277762      -0.37343271       0.13628985       0.24637770
Li      -4.49639812      10.80818081      13.40364479       0.32459361      -0.09721107       1.03055246
Li       0.61988632       8.39397623      20.99796552       0.35726182       0.36976121      -0.12836604
Li      -1.23755834       5.06291003      12.41697801       0.12344297       0.59361434       0.07067763
Li      -0.77493283      11.35395471      15.22228830      -0.72129023       0.32718705       0.16160326
Li      -0.89986321       7.34603500      18.63275916       0.00633093       0.04843201       0.77964151
Li      -1.49090620      11.60641866      23.53368495      -0.53349205      -0.26159342       0.62163408
Li       4.80891373      12.63668999      15.32288451       0.76232421      -0.12779464      -0.19634824
P       -2.89418823       7.75646478      15.76803553      -0.76023916       1.81871474       1.13806863
P       -3.21896843      12.26543889      21.71533426       0.62867708       0.66296722       0.00743498
P        1.16125666       9.74111694       9.55793045       0.01821131      -1.30564346      -0.42127385
S       -4.33260629       8.94690334      14.89930781      -0.86094629      -0.39978163       0.17240026
S        3.72490873      -1.22770699      22.09454917       0.38643792      -0.80137485      -0.78361697
S       -0.83286884       9.62068474       8.71317416       0.27600754      -1.22825213      -1.92754472
S       -1.10416812       8.50342277      15.11780546       1.73126210       1.73601896       0.96928542
S        3.73684316       0.26781230      20.65178668       0.57438701      -0.10397254       0.73567917
S        1.84483313      10.98518589       6.10075581      -1.11378940       0.27085803      -4.71940137
S       -3.05417868       5.77604495      14.82514265       0.80505906       0.21479303       1.49270189
S       -3.24080655      10.21202300      21.13931424      -0.21191855       0.64498110      -0.93134076
S        0.17899871       7.48663732       4.92089270      -0.40596089       0.58703107      -0.30266429
S       -3.15982301       7.69569817      17.87259805      -0.36252668      -1.00925442      -1.05159305
S       -3.59513679      12.10636394      23.76372317       0.66445747      -0.71938840      -0.31691806
S        1.04800713       9.40524718      11.64483532       0.09737768       0.38555790       0.36534157
S        0.44718675       9.68835588      22.97152405       1.41239422      -1.57073333      -0.76798871
S       -2.81209652       6.82497616      11.14893581      -1.47048806       0.52086598       0.43214836
S       -3.90198850      11.92579408      17.10376052       1.90247032      -0.06222584      -0.90761927
Cl      -3.45307711       7.88802630      24.17667749      -1.41755153      -3.42111808      -1.67142318
Cl       0.38414659       9.40683824      18.63755064       1.39171073      -0.26964756      -2.41639213
Cl      -2.66048337      10.23315601      11.79755063       0.32295442      -1.80251541      -0.50833184
Li       6.08160517       9.25785635      20.96523290      -0.54968804       0.02356068      -0.24228702
Li       1.72539681      12.59548321      17.03719464      -0.10815582       0.25682293       0.87689379
Li      10.71767880       5.84465727      12.20582508      -0.63313008      -0.73240735      -0.22712911
Li       2.86957718      10.00436300      22.88668036       0.92994458       0.14285175      -0.18688223
Li       9.73409011       5.73128891      18.69337511       0.20291704      -0.16171126      -0.57076710
Li      10.99028948       9.01940301      12.70436909       0.05333450      -0.10959489      -1.17171048
Li       6.06938206       7.90836989      23.70116934       0.52413224       0.16837994       0.01160768
Li       3.14383898       9.72133627      18.46160989      -0.14745566       0.16471397      -0.55544828
Li       9.05684595      10.72044432      14.78160059       0.04392370      -0.89806736      -0.05643373
Li       8.97870757       5.83921952      15.31555994      -0.57734639       0.66876496      -0.42847358
Li       7.65864939      11.86663438      21.47182779      -0.46749575      -0.35372921      -0.43721404
Li       3.26733390      10.50685937      15.25627923      -0.17762485       0.82124772       0.70496930
Li       8.99675387       9.47894406      20.74878780      -0.15837911       0.08878948       0.55180894
Li       5.10450898       5.85338301      12.60203916       0.23659856      -0.79370439      -0.40902055
Li       5.87290332      10.13223493      16.74512399      -0.22737893       0.36571476      -0.86230397
Li       7.25533379       7.21228343      18.91774281       0.27878112      -0.38894143       0.23946141
Li       6.00070405      12.01639642      23.48441888      -0.14089174      -0.61534865       0.50712819
Li      -4.80936372       7.07224876      13.28999965      -0.08749199       0.18075536       0.56384773
P        4.18018075       7.50551683      15.23637705       1.04722134      -1.26341421      -0.10362740
P        3.71492543      12.19174840      21.22537784      -1.11094602       1.54349515      -0.78976259
P        8.11708051       8.89392889       9.11908437      -2.41517784       1.40586370       1.36107856
S        2.23099234       8.04541025      14.85927655      -0.05936849       0.71444267      -0.44922641
S        9.43124205       0.07417480      20.15418144       1.16808673      -0.51635491       0.23072729
S        6.44576270      10.68559205       6.40633568      -1.32211581      -0.73893100       0.88647850
S        5.29136097       8.69409857      14.17194983       0.40364363       0.30429670      -0.78891414
S       11.12592851      -0.15883197      21.23287726       1.77593439      -0.27432347      -1.11689849
S       -4.04420325      10.47859158       7.57005095       1.65425161       0.38262006      -1.99320526
S        4.71347967       5.46732992      14.76397280      -0.07030179       1.69608516       1.58207016
S        3.81096322      10.12444147      20.76830916       0.93216407      -1.27108560      -0.09709821
S        8.85971315       7.12488891       6.57582547      -0.90361961      -0.05900158      -2.76817174
S        4.42070465       7.75916870      17.30551227      -2.56370061      -0.22071853       1.22130235
S        3.31406192      12.27608621      23.33070552       0.47788339      -1.56939935      -0.89756358
S        8.52128440       7.51511013      10.57622972       0.27563214       0.10991721       1.70337456
S        7.23745941      10.12000635      23.05007320      -1.00432285       0.00830761       0.51909321
S        3.92317973       7.34976695      10.76855038       0.37256059      -1.31393136      -0.18116152
S        3.84591434      11.52763332      17.27226830      -0.23829732      -0.82253922      -2.47094833
Cl       3.71374267       7.30688174      24.40932733      -0.31440333       1.02998495      -1.06158895
Cl       7.30330855       9.56292728      19.15357389      -2.31856569       1.09852137      -0.97104801
Cl       3.95719018      11.74987884      12.65925815      -0.27786219       0.62237175       0.32523644
S       10.02286425       9.91104772       8.66133864      -1.32993382      -0.29039182      -0.14115111
S        1.21152347       0.84379793      10.62586135       0.02828974      -0.13727244       0.93328349
S        0.87302956      13.15848285      10.78448300      -1.11244674       0.12642957       0.08946944
S       -2.27504515       0.26692342       8.23411339      -2.73760273       0.33020537       0.29279334
S       -8.79968471      10.79349371       9.88547403       0.32851904      -0.96545887       0.39537232
S       -6.80922605      12.58603054       7.31373891       1.54428697       0.78893977       1.02343787
S       13.66168475       4.39328790       8.30549561      -2.45040512       0.93098063       0.12612949
S       -1.77741102      13.88125972       7.64012840       0.96472991      -1.65052626      -1.41098261
S        4.21088731      13.00602099       8.60488116      -1.36607343      -0.42632634       1.67629042
S       -4.88406099       3.58296967      10.03904930       0.31311485      -0.25458265      -0.17834516
S       -3.86444190       6.33783007       6.67219975       1.53390131       0.27741391       0.32018611
Cl      -3.04016406       3.62897556      18.03557230      -0.18540059       0.01189593       0.09232333
S       -2.44100771      13.96958730      11.75074603       0.67745795       1.69096751       0.66450666
S       -2.04473402       4.55415614      23.92503056       0.02329111       0.61246844       1.34637875
S        4.20603602      -1.20800107      17.10935329      -0.52328827      -0.66205171      -0.63479393
S        3.96076067      -0.57036815      24.05321169      -0.92916223      -1.22885745       0.79792564
S       -2.01024273       2.90285726      11.71967083      -0.58480564       1.06099023       2.67827025
S       -0.02558813      -0.82762830      14.83060930       1.89611475       1.19585857       0.31038387
S        5.60128243      13.14186432      20.87216663      -0.12633634      -0.58539601       1.99857298
S        7.90187300      12.73789043      17.32057690       0.81032699      -1.11140698       0.07948568
S       10.37765912      -0.48255453      23.20132032      -1.09245314       0.00070958       0.21963600
S       12.22670090       7.14707072      11.26793355      -0.46004798       1.93358626      -0.97758889
S       11.69112836       5.43864872      14.79397106       1.46495132      -3.10812251       1.89245832
S       12.15353982      -0.75177278      17.05074404      -0.38711237       0.57132948       0.57520569
S       12.41153462       0.98195462      16.06806680       1.87347248       1.37189787       0.45752653
S       12.41128726       5.70337193      20.77712301      -0.02055618      -0.29887655       0.02819824
S       13.69901647       4.02770549      20.63347614       0.64018914       0.38141028      -0.38896559
S        8.50305314      -0.94891478      14.56732133      -0.57493330      -0.94423313       0.86374146
Cl      -6.45047383       9.25207389      19.07462013      -0.80934641       0.87480990       1.39399427
S       -5.62826609      13.70390915      14.89347460       0.42605792      -0.88293554      -1.63963258
S       -4.50711724      13.44711333      20.78547363      -0.60668248       0.93239504       0.06229717
S       -6.88739151      10.99577948      22.97991841      -0.39531000      -0.07837798       0.06817258
S       -1.31517368      13.03479120      21.33162350      -0.08420620      -0.14384258      -0.31605727
S        2.19875036      12.89709294      20.11207582      -1.11610547       1.01604844       0.37164260
S       -7.02902545       7.56502491      11.46549092      -2.48994655      -0.77878777       1.18206773
S       11.24003727       7.65846478      15.25221517      -0.65687861      -1.32749830       2.31936242
S        9.34919754       8.26775984      14.96378869       0.13546369      -1.13895166      -0.80670357
S        9.70411494      11.09577212      12.70528807       3.37234806       0.87383158      -0.04426264
S        6.97822959      12.00615734      15.48108046      -0.01948585      -1.28806408      -1.38983359
S        9.96657333      11.96269822      21.62757830      -1.35277972       1.51787320       1.76643516
S       11.16289173      10.18465481      21.65936427       1.86636099      -2.10100528       0.97811999
Li      -5.96542897      11.12988877       8.96634901       0.41318751       0.28322524       0.79175915
Li      -1.93971369      15.90862025       6.47403415      -0.49973216      -0.92906812      -0.11737189
Li      -7.32950640      13.47067779       9.75991215       0.13674633       0.08756890      -0.63986360
Li      13.26394518       0.75116458       9.63114289       1.57606930       0.02996906       0.23573488
Li       4.04206128      15.17886927       9.01149110      -0.36291491      -0.76584305      -0.04876310
Li       8.91392236      10.07459643      10.99163329       0.30911163       0.00149988      -0.28236139
Li      -3.72174598       1.28287707       9.68528065      -0.01490907       0.20563963      -0.24866394
Li      -5.18208097       4.86707049       8.00082984       0.21406162      -0.08980747      -0.07263115
Li      -1.65137241      -1.75552562       7.68739568       0.47296502      -1.06840552       0.57463902
Li      -9.01408710      11.93211301       7.75654549      -0.90715568      -0.00079109      -0.37989948
Li       9.60355475      -1.55875895       8.30995244      -0.25297633       0.28376133       0.21710678
Li      -9.97539641      12.03670373      11.48116056       0.07317533       0.06090874       0.06395777
Li      -8.77335895       8.64987432       9.97485188       0.41855175       0.68438022      -0.02047025
Li      13.50516967       5.59755126      10.43967745      -0.24223841       0.73232392       0.20547654
Li      -4.09840175       4.22283072      12.33468555       0.37245455      -0.42052455      -0.54830143
P       -2.62984744       3.67478866       9.85075887       0.59681449       0.87309738       2.02286122
Li      -5.11667124       6.23089409      10.53604988       0.02286559      -0.38254076       0.40712737
P       -6.31579973       8.27450701       9.64934244      -0.11218618      -2.29237709       0.61118182
