279
Properties=species:S:1:pos:R:3:momenta:R:3 LayerForceGeomOptConstraint=T E_ref=-1056.0374443318924 step=1100 pbc="F F F"
Li       3.71939092      14.68770396      21.76541079       0.59993762       0.05143528      -0.08122832
Li       7.15536940      11.76733089       7.49411804       0.33133855       0.01875054       0.83164874
Li       2.47644331       2.16856164      12.36756974       0.18055019       0.18712793      -0.73953052
Li       3.57165196       5.74223123      22.44073002       0.17605468      -0.36444071       0.20307936
Li       0.84807386       7.51554239       8.71533260       0.29125600       0.18486476       0.00418613
Li       6.24405897       2.83767225      10.51251241       0.24218050       0.36695481       0.51201387
Li      11.17344812       0.69013617       6.82468257      -0.01464453      -0.60730187       0.71704598
Li       2.80471473       5.72070895      10.31279841      -0.02271289       0.26565129      -0.82116977
Li      -1.68816498       1.83347387       6.01767812      -0.03042173      -0.56129347      -0.45985140
Li       6.86661884      -0.30314040       9.13460734       0.35645616       0.37047623       0.91000411
Li       5.54075004      12.52009074      10.87879353       0.11662579       0.14589955      -0.56596161
Li       0.89171050       5.24360244       4.18844822       0.31156666      -0.36501544      -0.07737906
Li       3.32396632      -0.20453565       6.50047834      -0.96863488      -0.27085689      -0.58861675
Li       3.63765827       0.91477832      10.31572400       0.19396572       0.00761423      -0.30476741
Li      -2.11595396      10.69372290       7.75542386      -0.88167744       0.45143520       1.13873391
Li       0.94923029       1.56669056       6.59659151       0.26226988      -0.42073628      -0.01992461
Li      -5.28066908      12.62769636      22.97229688       0.04808319       0.05143637      -0.00015599
Li      -1.05105843      14.03392345      10.30930647      -0.36883612      -0.44024489       0.64160311
Li       7.25029363      -0.24316798      12.69453560       0.08837264      -0.40929030      -0.28343365
Li      12.76693652       4.97329350      21.86852213       0.28003459      -0.29748247      -0.43315107
Li       8.69396753       3.88613706       9.78235047      -0.22102431       0.01049758       0.53417911
Li      -1.07102441       3.08548420       8.12265971      -0.08390032      -0.56719844       0.24838652
Li      -6.39883743      10.69339957       6.28721191      -0.56752128      -0.00944254       0.03311182
Li      10.88941947       5.47518314       6.10301561      -0.59620762      -0.06581061       0.90687285
Li       5.32272026       1.97016879       7.20899719      -0.32296141       0.41853617       0.34321728
Li      13.13104922      -1.86178193       9.52459252      -0.00503707       0.03034715       1.14425247
Li      -7.42771909      10.38785209      12.13992212       0.33112944       0.50411164       0.33622073
Li       4.16252231       4.10883191       8.31305509      -0.04566621      -0.21550636       0.18303063
Li      14.39587774       3.94063347       7.86847262      -0.12886788       0.10773477       0.04338415
Li       9.98943828       1.59166672       9.27994352      -0.05031934       0.49808621      -0.24052084
Li      -3.79141983       8.67529832       8.71062164       0.08710524      -0.47037425      -0.25329492
Li       8.21827098       4.46636775       6.97512420       0.33339779      -0.66068431      -0.22814533
Li      10.58948254       6.46017948      23.06058224      -0.16731143      -0.26444136       0.46445187
Li      10.42724458      10.11446108      10.52402795       0.23779722      -0.14098021       0.04010754
Li      -4.57957748       9.16523970      11.66769332      -0.05492434      -0.27984403       0.49409217
Li      -2.09335300       9.43788633      22.92276259       0.13960869      -0.71897921      -0.24803641
Li      -0.52521250      10.75276334      10.11639431       0.08460736      -0.11769118      -0.27702118
Li       3.99102818       7.59096495       9.02735734       0.36656699       0.05069747      -0.21763476
Li       2.65656641       7.42400831       6.14715231       0.03823290       0.64747085      -0.08657408
Li       0.75770090       9.77798138       7.55892356       1.02103171       0.12192966       0.03417308
Li      -4.21606186      12.25791872       7.46851705      -0.11664465       0.28719648       0.20086434
Li      -0.23422331       7.86851889       3.11358998      -0.33202685       0.04031654      -0.06805401
Li       5.62601866       5.54760391      10.47028758       0.89148876      -0.29563028       0.00762725
Li      -3.33418588      11.93624205      12.99496502       0.24641059      -0.19466855       0.90198905
Li       2.90628398      11.70009831       9.87167700       1.30641442       0.22266139      -0.62658732
Li      -1.28597172       8.24726139      11.07430905      -0.19094728       0.41972000       0.28660709
Li      -1.06603377       5.80195060       6.21457575       0.35697573      -0.21818124       0.02610313
Li       0.38923026      12.60115667       8.14941223      -0.06804002      -0.04829629      -0.12036991
Li       1.17119883       7.66225599      23.37217613      -0.61516749       0.10012684       0.02589833
Li       1.65062072       2.60400926       9.90575170      -0.15602181      -0.40558099      -0.20669473
Li       3.82219164       9.17210442      12.78483817      -0.54786535      -0.11747826      -0.43093233
Li       9.28425104      10.47842834      23.82946580      -0.20814133      -0.21580756       0.16130816
Li       4.84643971      10.45236949       8.66830962      -0.18730391      -0.67870427       0.18478380
Li      -5.32689282       7.66505050       6.84712427       0.44754939       0.45402648      -0.34309673
Li      -2.29025940       8.22380583       6.49350207       0.32254177      -0.62680423      -1.06810474
Li       3.75639407      10.25892818       5.37940322       0.16510211       0.32044857       0.21814294
Li       1.23303358       9.84598579       4.89370395       0.01922133       0.31194586       0.46916207
Li       7.14443653       6.53572448       8.26096462      -0.12424859       0.63614348      -0.10000220
Li      -2.33570679       6.11971521       9.10746081      -0.11040432      -0.16364050       0.90900748
Li       3.84165180      12.40893511       6.89473021       0.56927699       0.05879327       0.61969233
Li       7.91660523       9.18303916       6.62330018      -0.06623061       0.63037555       0.26307768
Li       6.16724379       8.03464260      12.33747923      -0.13715317       0.03709631       0.19873855
Li       1.89352347       4.01803002       7.17095806      -0.05479531       0.81037931       0.01363221
Li       9.76290837       7.42764489       8.84230842      -0.22734715       0.46446216      -0.35388923
Li       2.82132490       2.99218801      20.45177780       0.28760143      -0.22422475       0.41738088
Li      -1.75460592       5.71766438      18.36821471       0.01535094       0.29349200       0.03548833
Li      -3.77355609      12.82220276      10.38646038       0.79988518       0.13511680      -0.25004600
Li      -1.31103948       2.50453721      22.43426532       0.10278302      -0.41482066       0.35340376
Li       5.49518366      -0.77773477      18.35775044       0.16711699      -0.09618684      -0.16796475
Li       1.04134922      -0.66277362      13.26283091      -0.55236027      -0.08226201       0.23796704
Li       2.45492464       1.13609988      22.85204161      -0.59148468      -0.18074757      -0.10575714
Li      -1.98008877       1.66164440      17.84953540       0.47827112       0.71041634       0.36642347
Li       2.08839302       4.34403842      15.44274719       0.50945951       0.33406017       0.32272078
Li       3.99816990      -0.05268110      15.42518140      -0.01842207      -0.42912047      -0.44038679
Li       5.34068927       4.24410658      20.50130616       0.03801386       0.62012772       0.78652521
Li      -0.90896268       0.75676582      10.59851612       0.04617373       0.01739369      -0.60710782
Li       5.09243309       1.22915471      22.95519626      -0.55082906      -0.11362891       0.44160479
Li      -4.06833012      14.92810916      13.56578654       0.34488084       0.10830824      -0.53139440
Li      -0.17363660       3.56661312      18.03329166      -1.08630858      -0.84647345       0.27975708
Li       2.66970943      -0.26010092      18.10094416      -0.81040394      -0.00316334      -0.02998782
Li       1.57573393       3.64987986      23.43887607      -0.70044778       0.55765109      -0.09522384
Li       9.65474351       1.30497626      12.72366692       0.14016612       0.70700925      -0.05491713
P        0.19572719       1.01391895      15.85949419      -1.56516775      -0.91668886      -0.92888391
P        0.28631992       5.59091920      21.25457046       0.95078868       0.25235537      -0.36143149
P        3.67094367       3.70366617      10.89303802      -0.38337509       1.33078137       0.13089755
S       -1.40809031       2.28513096      15.41302115      -0.90573611      -0.42755980      -0.49534016
S       -1.29754092       6.69576873      20.58205708      -0.05864943      -0.92899385       0.10450654
S        2.77020169       5.92870237       7.91815115      -1.82400115       0.26769531      -0.73715563
S        2.00720598       1.76035626      15.00781457       1.21402850       0.14813382      -0.45046178
S        1.89173585       6.76773575      20.71791628       0.89908680       1.82819806      -0.15725201
S        6.49661847       4.15203607       8.53213511      -2.24062982       0.13345391       0.66892290
S       -4.14900583      13.75320412      15.94288391       0.14759067      -0.64163262       0.22652451
S        0.52226361       3.68349211      20.63493434      -0.40479295      -0.13578552       1.58006429
S        2.99537741       1.83277547       7.67878994      -1.47047817       0.56497174      -0.49649823
S        0.51000493       1.07011856      17.89101618       0.81466768       0.20596115       0.71175514
S       -0.18005490       5.46051758      23.42725165       0.89147502      -0.28997571       0.62556834
S        4.79132204       2.33691675      12.27463173       0.76480903      -1.61304660      -0.55674144
S        3.87883026       3.37628177      22.56284359      -0.31838057      -0.26909256       0.22722923
S       -5.47397710      11.59066234      11.66581414      -0.39569791       0.11671860      -0.59522531
S        0.57037472       5.66197652      17.17309627      -0.39897219      -0.28374878      -0.48787844
Cl       0.43337778       1.87060230      23.96276777       1.28056598      -0.90714311      -0.58498451
Cl       4.13163724       4.06274875      18.66862761       0.17852799       1.01488533      -0.06371346
Cl       0.77033338       5.11716961      12.87552550       0.74528658      -1.40992424       0.69570202
Li       8.63079715       0.24065648      23.27283962      -0.18910052      -0.52268233       0.43606949
Li       5.53685856       5.06318249      17.35336383       0.15231005      -0.41249243       0.11989083
Li       9.35671440      12.55349646      14.51541130       0.59800074      -0.60863542       0.11670553
Li       6.00311856       3.88490924      23.49847384       0.01713212       0.56731534      -0.07041669
Li       5.77961157      12.52493067      17.83909854      -0.63154747      -0.47409506       0.00161210
Li      10.58075681       4.02786527      13.22666341       0.81211945       0.01841611       0.70640395
Li      12.09718066       2.30672575      24.14809182      -0.08631138       0.51057525      -0.16903422
Li       8.26772020       3.17136199      17.47883407      -0.54860331      -0.09247522      -0.13566097
Li      12.15850822       6.50759017      12.93925081       0.00723929      -0.13803502      -0.16948038
Li      11.06141781      -1.31312528      15.46233315      -0.03936314      -0.49238034       0.11545859
Li       9.82090436       4.48992843      20.80655459      -0.16352788       0.14843004      -0.10107740
Li       6.77675724       3.25372473      13.59348615      -0.48377016      -0.09230153      -0.20358520
Li      11.66149338       2.42028048      21.56042176       0.23542034      -0.13352122       0.10731562
Li       1.51631702      11.34154904      12.34519571       0.47152126      -0.25006393      -0.31604573
Li      11.47576480       2.85898126      16.00822918       0.27991785       0.74421564      -0.14085267
Li      10.56258382       0.77151378      18.27117476       0.24726646      -0.15626709       0.00346233
Li       8.61902365       3.25581799      23.34267324      -0.50297802       0.77794582      -0.28261248
Li      -0.13844046       2.49903402      13.36165515       0.83794465       0.38758171      -0.36888174
P        7.94405096       0.82974527      15.31005538      -0.15347134      -0.93593978       0.91409007
P        7.64067112       5.92381011      21.76949577      -0.56419261       0.21114245      -0.61812628
P       11.89087706       3.09720922       7.86023104       0.84673312       0.51459695      -2.00182809
S        6.05945428       0.84569315      14.57862534      -0.89801431       1.23666469      -0.07229078
S        5.82141530       6.71929846      21.27190626      -0.73617587      -0.16476438       0.83426521
S        9.96869440       2.83327140       7.08120621      -1.46545358       0.27387213      -1.31516389
S        8.85137157       2.73181304      14.82484720      -0.12747762      -0.09810834       0.49558225
S        9.25447878       6.87118271      20.60335477      -0.26961348       0.20810245       0.33916308
S       -0.15174996       3.70381236       5.69554568       0.67215534      -1.15680382       0.13009483
S        0.90962611      11.88958550      14.51245766       0.18801577      -1.65173997       0.15633379
S        7.66123540       3.87190917      21.28139568       0.64140623      -0.28781751      -1.65596525
S       11.59347897      -0.27926433       8.94945108      -1.14049002       1.00694385      -0.07535544
S        7.90858353       0.71411735      17.33635393      -0.21090011       0.09524782      -0.09666298
S        7.65629157       6.06263099      23.81308250      -1.22458370       0.58472361       0.90129152
S       10.95883966       3.07272352      11.08871060      -0.58322352       0.40469300       2.33543497
S       10.98925554       4.15609533      23.02863559       0.39915786      -1.93931026       1.58501769
S        8.00512110       1.04339500      10.69722037      -0.73809228       0.20308283       1.20098301
S        7.73255821       5.40175420      17.73147181       0.45558172       0.39585254       0.38682850
Cl       7.01722747       1.74394289      24.20351030       1.59817385      -0.22636465      -0.06203806
Cl      10.56734594       3.10551724      18.20119609      -1.17500184      -0.63836525       1.03570085
Cl       7.75026050       4.86061228      11.80509156      -0.75342328       0.70248745      -0.81515947
Li      -1.54562165      11.17985912      19.02015229       0.31292515       0.01841701       0.00669968
Li      -5.80258717      10.91572415      20.38890578      -0.11778712      -0.01781043       0.32476238
Li       2.04869387       7.09469283      12.60541006       0.28689920      -0.33512328      -0.35586347
Li      -4.66071614       9.88704213      22.71609105      -0.58601223       0.35699217      -0.22296994
Li       2.35266297       5.96765809      18.39853535       0.20086943       0.16349724      -0.23154192
Li      -2.61121438       7.99605862      13.24562437       0.73726817       0.03278355      -0.18717163
Li      -2.64289224       6.37288624      22.52459496       0.09193788       0.10445190       0.36784946
Li      -4.52618460       9.63757268      16.96953530      -0.16524219      -0.66101012      -0.35169536
Li      -0.24852252      13.19107980      12.81576420       0.30914548      -0.07643483       0.55873445
Li      -0.73977582       4.77118778      15.30174324      -0.36863311      -0.20408464      -0.37187133
Li       1.05930026      11.79914478      21.39176506       0.88193044      -0.42372661       0.19818453
Li      -5.74120523      12.20891417      14.01092266       0.76042862       0.30655497      -0.43829083
Li       0.28602798       8.73098407      20.75427490      -0.13271431       0.23930959       0.19170500
Li      -1.11745165       4.99354018      11.42164306       0.19887577      -0.23038822       0.07698575
Li      -1.22866144      10.99045764      15.07861013      -0.91916766       0.15475581      -0.64886933
Li       0.65645092       8.10915008      16.83279609       0.19767016       0.11480017      -0.58000977
Li      -0.52525554      12.12394136      23.50454343      -0.35316605      -0.19213819      -0.42737119
Li       5.19232327      12.40427086      15.01020166      -0.66009100       0.12680410       0.22269074
P       -2.99193466       7.65332807      15.59493848      -0.56705093       0.54039263      -0.28175301
P       -2.97988963      12.20211738      21.41162662      -0.86172749       0.70441830      -0.32056019
P        2.39632464       9.39493099       9.67111713       1.10684667      -0.85156555      -0.80326226
S       -4.52259229       8.43574018      14.42313863       0.02159341       0.13837550      -0.89097634
S        3.01156878      -0.72496683      21.16968590      -0.81321802      -0.10556724      -0.59550632
S       -1.21071925       8.80049758       8.60105996       0.20759062       0.69624291       0.55645469
S       -1.19281041       8.52828620      14.94493721       0.59658073      -1.12407946      -0.22482145
S        4.13332976       0.67091802      19.99536922       0.38896549      -0.34165648       1.24242284
S        1.80471485      11.42161022       6.33939028      -1.23948955       1.01942313       0.31744770
S       -2.98725026       5.65322485      15.09714732       2.15450396      -0.36799004      -1.71441206
S       -3.24214742      10.29478630      20.63601678       0.34794743       1.33601066       0.30693450
S        0.38114330       7.49395875       5.27539634       0.19544579       1.43612491       0.14544839
S       -3.34028997       7.82033926      17.59124128       1.65295352      -1.52520441      -0.14839399
S       -2.92718922      11.80233157      23.49007327       0.36497764       0.56204381      -0.73672338
S        1.26076453       9.21524625      11.44968774       1.61390009       0.06247495      -1.16048551
S        0.34472691      10.09734230      22.76621181       0.70802655       1.85918922      -0.36884148
S       -3.08333186       6.47710203      11.37592718       1.44121185      -0.03161435       0.10646372
S       -3.78341794      11.72290738      15.38751221       1.28148043       0.77002767      -0.83537087
Cl      -3.71682686       7.94824846      23.78017097      -0.92965990       0.77293153      -0.29235426
Cl       0.48675887      10.13970273      18.08638222      -1.20965541       0.06517266      -0.19269620
Cl      -2.20931892      10.08958942      11.68661481       0.70949332      -2.01265030      -0.27206732
Li       5.70661233       9.46626523      20.94375394       0.30020785       0.38234240      -0.23086556
Li       2.04215845      13.15222858      16.07352791       0.06817886       0.11772028       0.74716147
Li       8.88101805       6.95532329      11.91922881      -0.96382205      -0.95473749      -0.82189643
Li       2.74508601       9.86991636      23.18126423      -0.21027189      -0.69905247       0.21696753
Li      10.32424656       5.58172758      17.65170460       0.06825391       0.27065630      -0.45592890
Li      10.77730730       8.80368421      12.90636533      -0.64806674      -0.28019233       0.46156536
Li       6.18151811       8.12985318      23.70665850       0.04854275       0.95573717       0.37733538
Li       2.63148581      11.07574747      18.53128404      -0.98199504       0.53624071       0.11647881
Li       8.86512011       9.88178089      14.35921196       0.43233987       0.42052008      -0.53504835
Li       8.24555124       6.10130400      15.55510948      -0.73111004       0.46711747      -0.07824918
Li       7.54455427      11.45936417      20.81104158      -0.38598372      -0.31382212      -0.15030208
Li       2.46623358      10.53059341      15.55289565       0.46897053      -0.16733354      -0.08757324
Li       9.29202684       8.82181711      21.85927225      -0.44065961       0.39296707      -0.04513423
Li       4.27984346       5.14661502      12.83238947       0.21734482       0.12743888       0.36392853
Li       5.81270999       9.81454339      17.07405067      -0.69350130      -0.20009583       0.67494058
Li       7.23814379       7.38881107      18.90359394      -0.25332470       0.21166507       0.68123549
Li       6.00321491      11.93420141      23.07137787       0.78579895       0.79328492       0.48604128
Li      -5.14845114       6.80257249      12.76112119       0.14556203      -0.48234226       0.00266456
P        4.26841404       7.42466361      15.68526555      -1.10767125       0.47611899       0.01471863
P        3.69765750      12.16065410      21.10672119      -0.38024166       0.13819151       0.02400097
P        7.57801140      10.29258848       9.77086212      -0.31117792       0.59305191       1.80647649
S        2.53206528       8.23298683      14.84915815       0.78839233       0.41762073       0.31333045
S       10.08277031       0.71480307      21.04552237       0.03610059       1.30260705       1.48559508
S        5.86034149      10.18476735       6.47287654       0.05676732      -0.59558012      -0.29854697
S        5.92081654       8.40083964      14.97308465       1.14783477       0.45843025       0.26580188
S       11.38498078      -0.08776105      22.41612836       0.17201556       0.56918271      -0.64706903
S       -4.26053707       9.85886227       6.63408885      -0.14081495      -1.04677633      -1.21845505
S        4.27163622       5.47945190      15.18196366       1.28241819      -0.26253275       0.17055197
S        3.54365997      10.22239214      20.44710478       1.56988092       0.44701386      -1.29034245
S        8.82020196       6.67980512       6.56608407       0.20510363       0.05259921      -0.87216253
S        4.27811988       7.63632389      17.68816879      -0.45392610       1.74556085       1.16542602
S        3.37951958      12.26860224      23.14486935       0.61656812       0.76156202       0.37620608
S        7.54362818       8.08584169      10.28489718      -1.95387694       0.02901461       0.44098949
S        7.11735560      10.09343348      22.73676096      -0.39271638      -0.64178359      -0.68070123
S        4.23154829       7.13550261      11.61463980       0.16628544       0.09688481       1.36183599
S        3.91110088      11.95268030      16.88210970       0.77694997      -0.17345593       0.35559035
Cl       3.48888517       7.69935527      23.98876158       0.22820643       0.06840171       1.27270487
Cl       6.91104275       9.81345899      19.04210375       0.85199349       0.36405261      -0.66330327
Cl       4.48967328      11.50471638      12.76799890       0.15864127       0.01462545       0.81996626
S        8.98361433      10.52708268       8.32506949      -0.87425445       0.36689112       0.89437215
S        1.40532276       0.36730457      11.13534891      -0.13788283       1.14822987       1.19595695
S        0.82661093      12.79634087      10.57253852      -0.51132757      -0.22180723      -1.02226127
S       -0.96756833       0.82689160       8.02547725      -2.04196403       1.80731551      -0.10247599
S       -9.14911026      11.03554761      10.50751282      -0.95807155      -0.78554261      -0.74573717
S       -6.50175129      12.44439273       8.01965973       0.30665492      -1.51427269       0.03815557
S       12.39954848       5.16253839       7.86505457       0.36580910      -0.34461026      -0.31224053
S       -2.11608614      12.98645647       8.36229597      -1.05855342      -0.71617907       2.34518811
S        4.60569741      12.96772113       8.86114669       0.13253721      -0.70107734      -0.52075557
S       -4.52123769       3.08082038       9.34987863       1.13099307       1.60504782      -0.18879901
S       -3.38493900       6.17838507       6.91048005       0.05368280       0.48195168       0.68832764
Cl      -2.43605061       3.60988119      18.68971289      -0.20016038       0.09774104       1.08353678
S       -2.32144210      13.97314075      12.09826504       0.21347023       0.08661685       0.29944850
S       -2.10294579       4.55459867      23.48291938       1.05100699      -0.54668703      -0.76313181
S        4.04915582      -1.69263471      17.04403507      -0.00023984       0.40417454       0.01554392
S        3.73380434      -0.77289472      23.14537994      -0.51846915      -0.02120606      -1.81776971
S       -2.08604993       2.66862704      11.73338152       1.29478687      -0.84992970       1.09718924
S        0.19574886      -0.91326256      15.24476444      -0.29809186      -0.78682223       0.15573126
S        5.54170836      13.17758619      20.82351962      -1.59086536       1.30835417      -0.22757723
S        7.58147307      13.48902081      16.16302508      -0.22658524      -0.30716164      -0.91004305
S       11.00615070       0.32950788      24.37548829       0.42986312       1.76726657       0.53115218
S       11.13236382       7.36120360      10.97593162      -1.97830816      -0.36955876      -0.76772159
S       12.35272470       4.80315540      14.81631365      -0.99315389      -1.44150702      -1.24256351
S       12.58223395      -0.30942785      16.87217647      -0.91634283      -0.87180667       0.55078067
S       12.44305904       0.77197333      15.16487709       0.22841742      -1.91226875      -0.10739415
S       11.98934553       5.52757351      19.74553657       1.71149495       0.27456950       0.25877368
S       13.35426538       3.96366160      19.87572600       0.35521430      -0.13025495      -1.11561496
S        8.95949525      -0.68963276      14.14553621       0.31379532      -1.14079971      -0.38054923
Cl      -6.34128552      10.34019678      18.18478737      -0.48515074       1.38374700      -1.31227642
S       -5.80329269      14.28116692      14.89774858       1.00283777       1.56880018       0.31290917
S       -4.36587131      13.60220418      20.97644333       0.38311046      -0.34060924      -0.61826317
S       -6.66381258      10.99286341      22.65410214       1.09492190       0.42128622       0.90819540
S       -1.05836839      12.87655422      20.78346961      -0.68118147       0.37662239      -0.50617468
S        2.37204507      13.46966411      20.14094258      -0.31313286       0.55099665       0.90699407
S       -6.89045760       7.68490032      11.40267532      -0.06693280      -0.86418293      -1.70350592
S       11.30885296       6.65757716      15.17190824       1.48703209      -0.52702069       0.07369901
S        9.28149294       7.62001597      14.20924065       0.05418517      -0.39204272      -1.48842715
S        9.93150144      11.03855172      12.68090786       1.93529743      -0.16885723       0.68713953
S        7.34388954      11.49575911      15.58470678      -0.81079432       0.90737678      -1.79437840
S       10.93639562      10.28363202      22.12831791      -0.01349080      -0.37504469       2.39094230
S       11.17713578       8.84167857      23.62102683       0.14062903      -0.53246354       2.38839462
Li      -5.99251937      10.59096057       9.48169596      -0.12754783      -0.31800749      -0.42095590
Li      -1.69827553      13.59878386       6.08458232       0.14592089      -0.72412515       0.16185640
Li      -7.30666652      12.63941084      10.47844326       0.31867020       0.26964960       0.82038316
Li      12.37108154       1.57258423      10.29202012      -0.57784237       0.10974652      -0.25811569
Li       2.63611833      14.25105720       9.97905167       0.05920540      -0.44325331      -0.48125302
Li       7.89992718      11.61084717      11.86489701       0.28137441      -0.39720546      -0.58068496
Li      -3.21915684       1.22153567       8.99150480      -0.72845912      -0.10930420      -0.20649865
Li      -3.95557631       4.08024223       7.40697491      -0.06483671      -0.23428857       0.10340801
Li       0.97324041      -0.16003037       8.99560201      -0.05736447       0.20351284      -0.52344835
Li      -8.70233482      11.45147126       8.28110202       1.08673219      -0.34593073      -0.18346913
Li       9.86183310      -0.68288496      10.55112359      -0.73825338      -0.60633547       0.09046034
Li     -11.47433293      10.69334613      10.93131848       0.00120993      -0.75619670      -0.19016631
Li      -8.61647156       8.62800541      10.21915205      -0.20589016      -0.50829464      -0.36743866
Li      11.50764399       5.25074491      10.03291187      -0.13661088       0.24393164      -0.78209717
Li      -3.24928791       4.39610397      13.06165071       0.25751679      -0.01522797       0.46738194
P       -2.56133095       3.63460153       9.90406749      -0.04399982       0.05003366      -1.13586506
Li      -5.18531520       5.70084771       9.94692786      -0.02340364      -0.03581970      -0.37738466
P       -6.13303928       7.99519882       9.55630705      -1.93157497      -1.27579349      -1.47757922
