279
Properties=species:S:1:pos:R:3:momenta:R:3 LayerForceGeomOptConstraint=T E_ref=-1069.5356599026254 step=3100 pbc="F F F"
Li       3.51279926      13.45988754      18.65753060       0.41460580      -0.28366431       0.65947503
Li       7.37739084      11.20028477       7.89259912      -0.29766014      -0.57227342      -0.51864272
Li       2.24641952       1.42575177      11.91722741      -0.62051160      -0.35220945       0.10910196
Li       3.69305553       6.33407790      22.90596632       0.35756889      -0.43000257       0.35425905
Li       2.04029748       7.22010236       9.42733604      -0.32823955      -0.59366392      -0.22141301
Li       6.46634053       2.10768528       8.86546114      -0.86143410       0.13399289       1.07039093
Li      13.30239000       1.39823690       7.88428046      -0.23128296       0.29275260       0.50340958
Li       2.18469881       4.66012902      10.86320741       0.41635749       0.33050517       0.78635135
Li      -2.21135794       2.08758723       4.90778095      -0.08919998       0.00533664      -0.31735099
Li       6.55413813       0.76954029      11.78183221       0.05158261       0.00393651       0.26634358
Li       6.35671759      12.23901356      10.98452923       0.63096519      -0.17900102       0.55613618
Li       0.41904759       5.88794743       4.10043963       0.45065736       0.15542948       0.42467126
Li       4.31214196       2.07876125       6.04013312       0.25182762      -0.54779499       0.04096319
Li       2.57682684       0.51147040       9.53798605      -0.11264446      -0.15429781       0.21393600
Li      -1.59811188      10.87696683       8.43145198      -0.44998159       1.04620682      -0.08968001
Li       0.19285203       2.05092422       5.98586403      -0.96736208       0.26509886       0.28732743
Li      -5.14099230      12.93880917      21.94633014      -0.01373730      -0.81668401      -0.95409497
Li      -0.22555058      13.79613168      10.09563637       0.38945714       0.14762088       0.10359039
Li       8.32354690      -1.02165417      13.25368975      -0.26291395       0.76394768      -0.29322435
Li      11.40051821       6.84792348      21.76088417       0.06104626       0.38322494       0.10516634
Li      10.44385470       4.77374344       9.06271559      -0.15238854      -0.33324533       0.23081327
Li      -1.77360968       3.91376882       7.55791572       0.63947324       0.82716964       0.10811519
Li      -5.10547562      10.67484936       7.77291078       0.31337564      -0.41881610       0.22142702
Li      11.65358605       5.55772157       6.40887586       0.36100771      -0.28060522       0.32105129
Li       4.11083802       3.17923027       8.69194786      -0.51309919       0.57811109      -0.24808813
Li      10.85134164       0.30097470      11.65136576       0.35862870       0.38612108       0.10046196
Li      -6.96190916      11.94346054      12.47097458       0.34058291       0.64537576       0.24510876
Li       4.51417706       5.68330542       7.70572893      -0.39519330       0.08123996       0.75165379
Li      12.84287636       2.32513850      10.43918867       0.79038090       0.32103909       0.74748827
Li      10.47189177       1.73223417       9.59866866       0.26374570      -0.24297950      -0.65451618
Li      -3.05291531       8.33439294       8.86224116       0.20412896       0.38897563       0.45307513
Li       8.30633698       3.86699835       6.13309438       0.43065874      -0.45280839      -0.08467936
Li      10.01209076       6.50613325      23.94552668       0.19441819       0.56939202      -0.50286961
Li      10.61902355       9.31394081      11.14671623       0.32225664       1.08735589      -0.37333486
Li      -3.40999349       9.71289781      11.27725846       0.37281256       0.56116868      -0.41095385
Li      -2.29824267      10.14991337      23.11138332       0.23054982       0.04550654       0.60586401
Li       0.52321064      11.52092081      11.84015304      -0.46887242       0.04264998       1.21466474
Li       5.12193205       7.54629104      11.19951803       0.24780800      -0.24066502       0.37817906
Li       0.69344952       6.22144061       6.88977078      -0.46792517       0.12165642      -0.71926232
Li       1.54079908      10.06983829       8.61847518       0.29168761       0.41871859       0.63884001
Li      -3.04164660      12.63427115       6.88985071      -0.11101771      -0.04998820      -0.13073041
Li      -2.16984192       9.61087875       4.03242378      -0.04527481      -0.45809077      -0.11346382
Li       5.57473241       4.76940965      10.92926695      -0.23847969      -0.00235968       0.51024754
Li      -4.82939199      12.30613070      16.23347729       0.00323029       0.16710618      -0.20949328
Li       3.85283609      11.78361323      10.23416602       0.51323601      -0.03727363      -1.16696644
Li      -0.45166661       8.58262675      10.69844305       0.06882339       0.09410186      -0.27692345
Li      -1.91941747       5.83974649       5.33469175       0.46222196      -0.01310344      -0.09242129
Li       1.58552663      12.85728477       8.18278951      -0.21336950       0.33565663      -0.32358303
Li       0.91775610       7.93800184      23.02117569      -0.79947720      -0.14507196       0.70570414
Li       1.37822254       2.84724329       8.99846331       0.16479823      -0.47145595      -0.32856515
Li       4.27040507      10.01156261      12.77296360      -0.03463513      -0.53483297      -0.34162020
Li       9.28748104      10.77732745      24.15316168       0.21150379      -0.25851175       0.24776822
Li       5.48011546       9.06326670       8.89910087      -0.65213965      -0.08159769       0.16890707
Li      -4.81718263       8.26958786       6.49828449       0.37190041       0.36010615      -0.11112541
Li      -1.80296671       8.36592703       6.59673121       0.30205325       0.17424110      -0.37621837
Li       3.51582453       9.13487235       6.13897495       0.67931122       0.52558474       0.52127685
Li       0.51416673       9.47401636       5.89078673       0.29537587      -0.29475167      -0.16175305
Li       7.26111894       4.98099822       8.49970762       0.64965359       0.29368871      -0.41084325
Li      -1.52115549       6.47816321       9.21441288       0.44047228      -0.03919011      -0.20488022
Li       4.50342923      11.20361797       7.45488762      -0.06999328      -0.42139146       0.44297972
Li       7.22897480       7.71985175       7.20150449       0.17138785      -0.23487905       0.20933440
Li       5.20210825       6.01423497      13.70571005       0.93482024      -0.04577634      -0.06577522
Li       1.95938469       3.97602941       6.58421501      -0.07504057       0.39868167       0.13440188
Li       9.86130301       7.45078920       8.76100409      -0.70650924       0.09238883       0.24763580
Li       2.51774939       2.98228716      21.13778838      -0.15077740      -0.63862551       0.14786475
Li      -2.28887981       5.22034558      18.04160092      -0.57495941      -0.76619730       0.32603420
Li      -2.65682390      13.98298347       9.40501828      -0.20858462      -0.88572713       0.14000192
Li      -0.86324388       2.79362251      23.83776764      -0.19097809       0.37345659       1.10440374
Li       5.40612830       0.12237354      18.61697472      -0.27790685      -0.08753142      -0.38751206
Li       0.28656120      -0.24502249      12.82370657       0.31469609       0.26961407      -0.15602294
Li       3.14932121       1.58468153      23.80876492      -0.29892726       0.29826020       0.21050923
Li      -1.31954926       0.86762831      16.61738989      -0.01547915       1.34143431      -0.04980476
Li       1.79106048       3.68908594      16.92571185       0.37115058       0.57082022       0.11837752
Li       4.41033036      -0.77027591      15.71700734       0.05729360      -0.12096294      -0.12492214
Li       4.90213361       4.34304065      20.94461477      -0.24447125      -0.45601596      -0.21697122
Li      -1.87312985       1.64026093       9.73646231       0.68860417      -0.15502879      -0.33273877
Li       6.05505907       1.10356333      22.34740532       0.58448602       0.04568514      -0.65171328
Li      -2.96392644      15.60445116      13.24142331      -0.14153255       0.44020270      -0.75602111
Li      -0.44976525       3.08861961      18.85279240      -0.42302980      -0.14955837      -0.45838106
Li       2.50306707      -0.49218589      18.47450944       0.30367645       0.26064432      -0.14135490
Li       1.99690485       3.95267287      24.66934134       0.13562426       0.31246357      -0.13119501
Li       9.04335654       2.12595184      12.22905961      -0.42096072      -0.72206135      -0.02305183
P        1.46175332       1.07751144      15.21281652       1.59487733      -0.85054194       0.18134813
P       -0.18212616       5.04442293      21.55266121       0.51573568      -0.98139661       0.08351649
P        4.04413656       2.93171884      11.08265587       1.41166920      -1.10214896      -0.04638062
S       -0.38702152       1.44098510      14.39753533      -2.27904071       0.30057780      -1.25717671
S       -1.94325043       5.84346221      20.77989736       0.08824510       0.91519405      -0.83164918
S        2.15901019       5.01195183       8.64677380      -0.40296518      -1.30307537      -0.09903385
S        2.79255624       2.59470835      14.90659759      -1.01328221       0.34731462       1.77126644
S        1.29734246       6.54695233      21.24886695      -0.54622570      -0.82130838      -0.72697667
S        5.86693560       3.54271360       7.14191379       0.15123306       0.40151580      -1.96328118
S       -2.30470331      14.96018294      15.82859596      -1.19846118      -0.05630334       0.91489031
S       -0.00436874       3.02246699      21.17696310      -1.04825465       0.76513705       0.65293262
S        2.13469788       1.40905670       7.15246657      -0.39595717      -1.45698572       0.33655393
S        0.99450408       0.84842780      17.25807090      -0.14642713      -0.34392081       0.84288877
S       -0.23185645       5.44313874      23.67259381      -0.16742502       0.07100335      -0.94513398
S        4.58148692       0.89673631      10.27962981       0.34224208      -0.08918988       0.06993336
S        3.81421264       3.98009527      23.11097601      -1.63223138       0.76153993      -0.37431010
S       -4.95217810      10.70257455      12.54598863       1.65617712      -1.13293688      -1.44761831
S       -0.06423579       4.84560692      17.11309727      -0.53073149      -0.19997983      -0.59643537
Cl       1.03434690       1.98449318      24.68236805      -0.54442013       0.96752123       0.79595177
Cl       3.19932133       4.40291029      19.14205785      -0.88393696       0.24666643       2.28826636
Cl       0.28085873       5.28887340      12.45768464       0.51557511       1.33257689      -0.02748880
Li       9.31806072       0.71347099      24.05973775       0.58477490      -0.17504646       0.03133004
Li       5.04640786       5.52528687      17.81128753       0.13681009       0.01255232      -0.08097403
Li       9.54547587      10.33520920      15.64499505      -0.22999035      -0.26362235       0.12879850
Li       6.09491160       4.00887268      23.56182283       0.28220790       0.29521435       0.24087401
Li       6.22968186      11.99144700      17.75487089       0.93191227      -0.35526088       0.85749632
Li      10.32941952       3.92782855      14.44697314       0.72650477      -0.04005692      -0.35629269
Li      11.55810471       3.06672806      23.86694257      -0.16714768       0.55915459      -0.33407432
Li       8.28759338       3.71410761      17.05044486      -0.43691378       0.85405025      -0.27190949
Li       8.58895330       5.22601954      11.77302782      -0.01250744       0.29705835       0.00975682
Li      11.14045651       0.84904179      14.79526568       0.66773227      -0.04853602       0.54236303
Li       9.27284754       5.84635154      18.84232183      -0.50112560       0.06727502      -0.28960228
Li       4.80322601       2.37661909      13.47623005      -0.83008674       0.18427413      -0.87167615
Li      11.51658855       4.06741651      20.79560957      -0.09298324      -0.03469198       0.26074551
Li       2.19722345      13.20437079      12.82877441       0.02591974      -1.08952768       0.38989155
Li      12.09263496       2.73213024      18.29287320       0.02984095       0.70307581      -0.14059004
Li      10.52191754       0.69045162      17.82579107      -0.36082567      -0.26710440      -0.21015643
Li       8.88262312       3.96333039      22.97276135      -0.16989361       0.16365636       0.29639621
Li      -0.96764474       2.68452243      12.07315326      -0.00209625       0.03441539       0.04497967
P        7.57273604       0.93071225      15.53303864      -1.18640675       0.53627585      -0.14143129
P        7.24998968       6.12081426      21.67304855      -1.70924807       1.74178267      -0.90091506
P       11.85907587       2.97771100       6.68263018       0.06957903       0.55382118       0.98775826
S        6.19847513       0.09940439      14.20565293      -1.09654788      -0.98645607      -0.60418910
S        5.46308040       7.16292033      21.38935329       0.65932441      -0.33445925       1.47549478
S        9.96911236       2.38778207       7.29886538       0.43966755      -1.07871847       0.37723085
S        8.11985472       2.69977094      14.56506912      -1.23773314       0.88896747      -0.05764406
S        8.71856569       7.24041332      20.73514446      -0.11978718       1.82696705       1.00601534
S       -0.40452896       4.22708102       5.53267841       0.44877495      -0.16034425      -0.70355900
S        0.60244916      12.21798582      14.36287726      -0.69908904       0.08488549       0.57522862
S        7.33952905       4.28719680      20.89588267      -1.04870203      -0.36286865      -1.80923627
S       12.24735703       0.18930076       9.74429796      -0.42244054      -0.72495820       0.00653952
S        7.20486148       1.54626463      17.37612533       0.51599172      -0.22548597       0.11337062
S        7.46596327       5.92671574      23.73355680       0.30724926       1.17546955      -0.12673406
S       11.44445265       2.84627133      12.21290862       1.18547339      -1.37611854       1.54713214
S       11.05044137       4.98314783      22.84884184       0.50890234      -0.22811010      -0.89388728
S        8.64907878      -0.03843266      11.08996476       1.45434012      -0.43263747      -0.17034829
S        7.30677649       5.83927732      17.38868191       1.34976691       1.50451388      -0.61058232
Cl       7.58377624       2.07518161      23.67415500      -1.49683489       0.17307677       0.81922645
Cl       9.97590610       3.03789977      19.11322889      -0.27160519       0.25443476       0.23524801
Cl       7.72090363       3.38044703      10.72739461       0.78960200       0.07642783       0.35578614
Li      -1.48602764      10.32768511      18.36566089       0.60966857      -0.25569145      -0.31157568
Li      -5.91091098      11.06657884      19.46313547      -0.49358899      -0.01012193      -0.04813830
Li       2.04180587       7.17070227      12.77933872      -0.37311761       0.44043318      -0.05181588
Li      -5.10164092       9.90137686      21.85127520       0.26268887       0.34763350       0.30728427
Li       1.28980552       5.79807486      18.88675479       0.65896552       0.22776174      -0.69074589
Li      -3.92204443       9.74514123      14.62872252       0.29997073      -0.23119126      -0.24957110
Li      -3.12370018       6.00999497      22.86634310       0.36090931      -0.50228880       0.25675255
Li      -4.29778669       9.48291638      17.80132940      -0.25917659       0.32322089      -0.15878002
Li      -1.42410821      13.39957722      14.17606350      -0.09843877      -0.24181631      -0.06721283
Li      -1.58634461       3.53651667      15.64104922      -0.32526371      -0.20378347       0.22930555
Li       1.21710721      10.66700331      20.61961728       0.54177271      -0.13443784       0.27041616
Li      -2.49761831      13.35898822      17.44525919       0.13119070       0.26659004       0.25077632
Li      -0.79651514       8.52428978      20.96731628       0.42046806       0.16671925      -0.11005950
Li      -1.57503655       6.54251847      12.99051250       0.72347597       0.31742109       0.07189538
Li      -1.05171134      10.62952367      14.93480579       0.90363708       0.34222364      -0.36377956
Li      -0.16996465       7.09718814      16.53919783       0.31140499       0.54741501      -0.02895727
Li      -0.45133085      12.44885050      22.15093545       0.08279257      -0.44387658      -0.57695301
Li       5.55081608      12.23911303      14.92971612      -0.16682131       0.76080997       0.19685099
P       -3.67305791       6.93599189      15.36922760       0.39062827       1.02009191      -1.75556179
P       -3.00010051      12.02424821      20.36661904      -0.35975720       0.90420227      -0.82581952
P        3.34990690       9.46794921      10.53007680      -0.47471666      -1.74789569      -0.55005725
S       -5.37495556       7.69783455      14.65792774      -0.97539036       1.62129462       0.16750344
S        3.26809664       0.06385834      21.79471613      -0.43133764      -1.19077119      -0.38361045
S       -0.01333176       8.37375342       8.23387707      -0.10850789      -0.29637200      -0.24786637
S       -1.92838057       8.20017604      14.94034229       1.42381471       0.38307493      -0.32966411
S        4.35804869       1.40992327      20.52300752      -0.33041040      -1.91456922      -0.03868094
S        2.07919220      11.04649736       6.65196983       1.26625318      -0.77063472      -1.01087690
S       -3.16395526       5.11745140      14.38651478       1.50386006       0.82177473      -1.02488596
S       -3.41018041       9.95854236      20.09794322       0.19687570      -0.14288187       0.89287106
S       -0.62060801       7.86643099       4.53662145      -0.92478386       0.80747300      -1.04967361
S       -3.82524901       6.79085528      17.36481776      -1.48727181       0.32508877      -0.58907506
S       -2.94821049      12.44776505      22.42452400       1.78997244       0.64718301       0.04136651
S        1.75827817       9.18891303      11.84263255       0.54841395      -0.38098937      -0.38508226
S       -0.06638186      10.16782380      22.50344434      -0.00265564       0.96642549       0.18649644
S       -2.78267740       7.43406742      10.94777697       1.22340658      -0.62731119      -0.52439163
S       -2.76322679      11.20402554      16.37520676      -0.10678086       0.31640693      -1.21526018
Cl      -3.75766489       8.32438268      22.80275736      -0.70743255       0.47008381      -2.00455149
Cl       0.39109803       9.38231243      18.86091972      -0.64440606      -1.24488988      -0.55635639
Cl      -1.52981910      10.84096363      10.74113286       1.67460890      -1.48499745       0.25905697
Li       4.68868752       9.75437649      23.02172089      -0.32829599      -0.11706570       0.56902714
Li       2.06495035      13.28962925      16.15537518       0.54395614       0.59247504      -0.36320502
Li       7.69400845       7.45997673      10.96237835       0.81950418       0.29561066       0.69141939
Li       2.23612882      10.36283297      23.04469963       0.57575095      -0.68429218      -0.36069572
Li      12.86499555       5.15955307      16.75132152      -0.57146893      -0.45557725       0.19252473
Li      12.48406789       8.22456879      13.72484946      -0.54555722       0.08310051       0.34200756
Li       7.72005611       8.41275945      24.41197385      -0.38910300       0.18513281       0.49943242
Li       3.01065830      10.24001125      18.28157891       0.95580238       0.19707538      -0.05324440
Li       9.82986776       7.20006713      13.09889976       0.33051264      -0.19322641      -0.12398473
Li       7.36490800       7.42834070      15.56568893       0.53402168      -0.26863905       0.40068783
Li       6.10753879      10.03517932      20.72917224      -0.34470279       0.18679478       0.07078568
Li       2.05139294      10.53648611      15.02429239       0.01041687       0.30559867       0.60814058
Li       8.96184609       9.30773820      21.62689439       0.56685983       0.46364304      -0.29968053
Li       2.45099812       4.73200058      13.84161608      -0.16036867       0.17126883       0.49802931
Li       5.67861900       9.59383172      16.74460640       0.36892017       0.55376443       0.40336821
Li       7.01709567       7.49480962      18.88350062       0.45595937      -0.32214285      -0.42091853
Li       6.17004714      12.36864146      22.47659772      -0.45107780      -1.10431144       0.59362525
Li      -5.80072927       8.38098193      12.22451260      -0.05074139       0.08991800      -0.72350585
P        3.38283129       7.42755709      16.01354820       1.30249837      -0.46637790      -0.56764392
P        3.65421784      12.32270199      21.16320471       0.24609265      -1.33840449      -0.20294594
P        7.42648934       9.94525550      10.51749951       0.22721404       0.38585915      -0.59290241
S        1.55255820       7.91398088      15.07813881      -0.24145064       0.79353344       1.99504535
S       10.79404338       1.40199287      21.93847506      -2.61182447       1.31679904       1.06828092
S        5.68907656       9.46412739       6.70362087      -0.45685552       0.31216206      -0.71806516
S        4.90888898       8.36245425      14.91950906       0.79202542       1.28177947      -0.60903855
S       12.29054535       0.75514896      23.19712401      -1.50752258       0.37974158      -0.80777632
S       -3.14570901      10.17343496       6.46058840       2.80312118       1.11536717      -0.16594290
S        3.88919972       5.45382135      15.77656188      -0.57537236      -0.68491160      -0.18421334
S        3.73049861      10.22904440      20.81127855      -1.47556876       0.54241394       1.08527940
S        9.27421692       5.95593864       7.16063141       0.63123957       0.42091654       0.49535659
S        3.88502779       8.05310531      17.92788012       0.42229486      -1.87852476       0.91503286
S        3.88086122      12.45065672      23.24556298       0.41376628      -0.58957947      -0.73594245
S        6.05697218       6.70728009       9.23462511      -1.44500123       1.67428726       2.02587496
S        7.20533106      10.37161088      22.84683856      -1.10581588       0.03658138       0.04121422
S        3.64022308       5.68817483      12.09004178       0.26589338      -0.53220043       0.24041865
S        3.98683343      11.75621590      16.79611328      -0.15319619       0.78877839       0.29950212
Cl       2.97532797       8.36924199      23.98345296       1.34733973      -0.05311649      -2.05170939
Cl       7.08170180       9.74121080      18.72043598       0.36761409       1.80235066       1.97256597
Cl       4.72716888      12.45784072      12.85898727       0.55242444       0.48194943      -0.82955263
S        8.93577348       9.67903872       9.20620932      -0.16875658      -1.17218222       1.04436037
S        0.32762507       1.09881828      10.73979971       0.97494776      -0.21697626       0.72629833
S        1.87231812      13.01422857      10.48594125      -0.99619376      -0.27993747       0.48941217
S       -1.78245809       1.38236346       7.40654809       0.26025228      -0.64163309       0.01069215
S       -8.27372909      11.89477147      10.30691970      -0.54777627       0.53837721       0.72807011
S       -4.54125596      12.76980555       8.91499617      -0.97712280       1.07105483       0.60387345
S       12.47524667       4.02093506       8.47594212      -1.74112675      -0.90341364      -0.98657436
S       -0.90130145      13.24044507       7.78335624       0.08112403      -1.58846412      -0.52436967
S        5.51994103      12.87774402       8.88482742       0.25795340       0.05798883      -0.14201124
S       -5.32042326       3.96609776       9.13656177      -0.55864665       0.54564498       0.96183209
S       -3.47065189       6.26556536       7.38075950      -0.84789316       0.41802456       0.09085644
Cl      -2.60513623       2.67751241      17.65936986      -1.39899952      -0.54071254       1.36017252
S       -2.06140353      14.22779885      11.57991982      -0.86907769       0.25671455      -0.02207451
S       -2.01161765       4.69555895      24.48586244      -0.48885412       0.59920772       0.74192325
S        4.15783492      -1.51693405      17.68335202       0.89824709      -0.25715003      -0.03253199
S        4.34632976      -0.34485142      23.41586079       0.02308065      -0.27717412       1.66284708
S       -3.28253246       2.70964280      11.34613494      -1.76320668      -0.61449156       0.50008130
S        2.13476613      -0.68283347      14.33533530      -0.24827206       1.65511152      -0.65886312
S        5.30007092      13.05795743      20.20551016       0.78787735       0.31311362      -1.34485073
S        7.83173475      12.31049018      15.96630816       0.44467448      -1.39747110       0.83823225
S       11.61089921       1.20018051      25.19563830      -0.29981262      -0.50919252       0.31893191
S       10.37952087       6.34332367      10.82820213       0.06387983       0.14634782       1.38397085
S       13.27166966       5.77104047      14.07804526       1.91879069      -0.81499919       0.19838859
S       12.51537061       0.98752985      16.64769865       1.09924082       1.92389377      -0.50858859
S       11.96625246       2.94348043      15.94856857      -1.37042913      -0.13416022      -0.33728015
S       11.63459174       6.48006558      19.38621125       1.03780245      -1.23430244      -1.92355563
S       13.09417476       5.02653174      19.11350392       0.72205752      -0.03751679       0.27082579
S        9.21308607      -0.40411177      15.59911401       1.76127775       0.38496083       0.12519286
Cl      -6.26336149      10.56867593      17.22280099      -0.92810480      -0.39825188       0.13643721
S       -4.09700836      14.31027437      14.90504682      -0.05071843       1.37018756       0.63543968
S       -4.32414291      13.29503155      19.53635093       0.68018781      -0.84276415      -1.11596472
S       -6.77555491      11.34029190      21.88737554       0.62373896       0.40568063       0.99258121
S       -1.10731635      12.60419111      19.71472871       0.73127662       0.21127263       0.04642903
S        1.98429932      13.21882680      20.31288553      -0.57660366      -1.08287749      -1.27993888
S       -7.03310377       7.62231427      10.07448732      -0.50122712      -1.24039768      -0.56731970
S       11.26674890       5.92215527      14.93138638       1.14922216      -1.02250545      -0.05664483
S        7.26443376       7.02395079      13.10167154       1.41593974      -1.35296493      -0.03280865
S       10.48290743       9.50458357      13.48224608      -1.58043291      -1.19676545       0.94789549
S        7.15182383      10.44900812      15.09937551      -1.53767248      -0.01674514       0.25778367
S       10.70209287       8.84677988      23.16064684      -0.43823646      -0.52680129      -0.56689697
S       10.21191377       8.75064707      25.21607463      -1.43640234       0.13892927       0.53730455
Li      -5.64708567      11.18162463      10.39656161      -0.60858674      -0.16586919      -0.27705470
Li       0.12585221      12.50132450       5.88662883       0.13153261      -0.20718841      -0.17784750
Li      -3.86064050      12.82280393      11.69467990      -0.23770721      -0.27598249      -0.71858229
Li      13.18552736       3.21742971      13.74785814       0.40669698       0.16350454      -0.29783267
Li       3.82388184      14.18929654       9.72382869      -0.69029889       0.76653503      -0.03188493
Li       8.21844455       9.37131198      13.31956308      -0.13055873       0.27421834       0.06060607
Li      -4.17749347       1.89347461       8.21004241      -0.10936859       0.09145678      -0.04175467
Li      -5.25460148       4.82147273       6.96510209       0.19430133       0.02445930      -0.13698847
Li       0.13263896       0.70048954       8.32671887       0.31040461      -0.63193006       0.27037481
Li      -6.82712859      13.30758436       8.96957084      -0.08121644      -0.44506270       0.14473061
Li      10.13304134      -0.92309064       9.40656647      -0.71647881       0.40730939       0.54460600
Li     -10.43486791      12.08548569      10.69237179       0.22475665       0.04635824       0.37625852
Li      -8.09672154       9.69344811       9.78905371       0.57585195       0.16714835       0.03405379
Li      11.96408173       5.22345363      12.18752654      -0.53335470      -0.45174843      -0.56600989
Li      -3.74968241       5.51705495      11.93595164      -0.63700046      -0.48594081       0.41120408
P       -3.24203125       4.04281876       9.73631726      -2.13848230      -0.30187107      -1.66462545
Li      -4.81483379       6.44953805       9.66019770       0.60475028      -0.12682630      -0.04589219
P       -5.54839321       8.77538856       9.26396062       0.16180899      -1.11514944      -1.52221711
