279
Properties=species:S:1:pos:R:3:momenta:R:3 LayerForceGeomOptConstraint=T E_ref=-1059.9304572188369 step=1400 pbc="F F F"
Li       3.85874340      15.14367525      20.15242886       0.24636935       0.23912149      -1.00850682
Li       6.48036629      11.74016147       7.52759974      -0.49192340      -0.14936383      -0.35534298
Li       2.76834519       1.77901066      12.45761352       0.15640510       0.88358057       0.14828426
Li       4.00921514       6.23929678      22.41024473      -0.88420931       0.45147103       0.03019225
Li       1.04045281       7.53184529       8.70598078       0.29532509       0.01295108       0.27942868
Li       6.82000445       2.76492694      10.55939178      -0.20896503      -0.04877258      -0.10260056
Li      11.41959086       0.39088726       7.82560678       0.47240283       0.13682725       0.87734608
Li       2.27670872       5.80992262      10.63289347      -0.13262450       0.28379119       0.00078693
Li      -1.33427187       2.11216669       5.69529411      -0.22303908       0.04877625      -0.47890510
Li       6.28546004       0.35892295       9.51593462      -0.69545235      -0.09489588       0.07785085
Li       6.03512712      12.22404053      10.51776116      -1.01584458       0.27593736      -0.15805773
Li       0.92354652       5.06204971       4.04645056      -0.01113000       0.78720603       0.53244126
Li       3.60636814      -0.11826050       6.31201831       0.30111014      -0.65409360      -0.09312119
Li       3.35366551       0.78312094       9.80620142       0.04680322      -0.20898561       0.13820688
Li      -2.36202239      10.51081196       8.42209922       0.09552185      -0.13539516       0.16148407
Li       1.06364791       1.51286552       6.72631801      -0.10047296       0.18251353       0.62656022
Li      -5.48365203      12.60176855      23.24220111       0.02716102      -0.12426898      -0.27752112
Li      -1.17322679      13.81653362      10.08816797      -0.84670529      -0.34438735      -0.00751738
Li       7.01960702      -0.60921675      12.68197918       0.27507235      -0.29145243      -0.33718911
Li      12.50977615       5.69806299      21.30121617       0.43365012      -0.46548688       0.17035567
Li       9.02202748       4.07079493      10.09427341       0.10041631       0.17001761       0.00148942
Li      -0.71663084       3.43351517       7.93813736       0.26937624       0.12674686       0.04183138
Li      -5.47638298      10.17175146       7.34898610       0.47590203       0.05000971       0.57938202
Li      11.04393512       5.57488097       6.29798313      -0.12866319      -0.12275622       0.18216259
Li       5.43859052       2.41879257       7.38382109       0.22488759       0.20808963      -0.39698976
Li      14.00316766      -0.78323865       9.46491045       0.59906059      -0.06407689      -0.14889976
Li      -7.84618742      10.25891367      12.07738126      -0.17304144       0.73899259      -0.20996208
Li       4.34016989       4.57452292       8.82703709       0.69921660       0.35939742       0.29202088
Li      14.47891549       3.46020308       6.47860704       0.05508924       0.24874437      -0.28934639
Li      10.08979229       1.42070400       9.63341071      -0.33062026      -0.20050674       0.44970729
Li      -3.30903454       8.24717354       8.30369154       0.00795719       0.49860541       0.11222198
Li       8.76070787       4.37751410       7.17994251      -0.15648807      -0.62133891      -0.83211523
Li      10.35503380       6.40063965      24.00123266       0.48621843      -0.36393102       0.99090328
Li      10.06681986       9.93964469      10.92904804      -0.15829388       0.07991710       0.24289253
Li      -4.98467778       9.67002894      11.18982467      -0.14266290      -0.00389501      -0.04786476
Li      -2.18996352       9.73054849      23.08716914       0.14344358       0.05663060      -0.17046130
Li       0.37840493      10.88569687      10.56286162       0.20581887       0.11054131       0.51038689
Li       4.27237469       7.64185834       9.68517092       0.45664412      -0.38762732       0.09818059
Li       2.17470486       7.03576647       5.82472527      -0.26903663      -0.46283448       1.18123936
Li       1.05198198       9.94549384       7.76264060       0.17638356      -0.52486977       0.60911202
Li      -4.31245850      12.42766824       6.75843198      -0.53289236       0.12597950      -0.46100200
Li      -2.38945084       8.34906557       4.42472794      -0.50215954       0.32079841       0.02537793
Li       5.86269912       5.42510021      10.96659897       0.07095573      -0.26045416       0.05506606
Li      -3.33027755      12.28956128      12.90045146      -0.21866418       0.79510033       0.29009621
Li       3.21723545      11.73498611      10.30510420      -0.50561243       0.05014772      -0.14506217
Li      -0.79409472       8.41320141      10.98204542      -0.33525143      -0.71958325       0.81907183
Li      -1.18031904       5.30544054       5.45161227       0.29471155      -0.69960148      -0.80439823
Li       0.36988847      12.93447874       7.93323712      -0.46452864      -0.31049384      -0.19912497
Li       1.61185021       7.84880082      23.41410880      -0.20649176      -0.00645753       0.32669426
Li       1.79403231       2.84159096       9.87608967      -0.08074747       0.23873974      -0.37692396
Li       3.39716625       9.10413453      12.75565065       0.20504653      -0.66911997       0.41526729
Li       8.94108019      10.75098818      24.15985528      -0.26675855      -0.11527612       0.31951583
Li       5.23213127       9.91057595       8.89380096       0.04344294      -0.77861149       0.44199729
Li      -4.72406787       7.66986599       6.29513736       0.00828288      -1.25995537       0.42236167
Li      -1.46394952       8.01331267       6.50434964       0.40490221       0.05997887       0.10862829
Li       3.46690853      10.12154148       5.16612585       0.04663618      -0.62146794       0.31785075
Li       0.37143927       9.72725201       4.40554869      -0.30786111       0.78899360       0.23979811
Li       6.86825097       6.32484927       8.03048848      -0.76372839      -0.73072892       0.67113206
Li      -1.46737182       6.37897176       9.53604735      -0.33651687      -0.05212919      -0.00062695
Li       3.71371474      11.69856179       7.10448275      -0.47418637       0.25984169      -1.12205550
Li       7.72781862       8.97382206       7.29011542       0.20804540       0.21959206       0.25368924
Li       5.96572313       8.10959390      12.72175239       0.45692399      -0.34060096      -0.09032464
Li       2.51359524       3.97960920       6.77066389      -0.21693364       0.22357968      -0.55340593
Li       9.96308418       7.93440598       8.75516039       0.47164298       0.81561989       0.09835857
Li       2.79767143       3.24605491      20.80348996      -0.37731273      -0.03812577       0.50016908
Li      -1.96381410       5.43394359      18.12695055       0.50658659       0.46872773      -0.25155604
Li      -3.98828634      13.09666060       9.84263767      -0.03438553       0.16860598       0.04048916
Li      -0.81649268       2.59311505      23.36638560      -0.03900697      -0.17842427       0.49063593
Li       5.53319965       0.03770457      18.05525037      -0.14738528      -0.31991380      -0.64852285
Li       1.50227620      -0.48464432      13.06728796      -0.27299473       0.05946804       0.44626933
Li       2.77821458       1.13165118      23.32236008       0.36323168       0.28219729       0.06146103
Li      -2.05608818       1.45273084      17.18486402      -0.85192650       0.00426917       0.34429030
Li       2.35691657       4.10449282      16.59793036      -0.57554424      -0.43921222      -0.13378559
Li       3.81926607       0.07879362      15.41844341       0.12914116      -0.88229584      -0.26160176
Li       5.31784238       4.24805366      20.76572663       0.74273686       0.39382936       0.24978395
Li      -1.21685999       0.48319709      10.23955195       0.46375772      -0.32037390      -0.00454002
Li       5.78422451       1.83422752      22.60343169       0.34625857       0.31450649       0.38733686
Li      -3.68413059      14.77017374      13.90717724      -0.35405570      -0.29604974       0.50430908
Li      -0.49367740       3.65107472      18.75302744       0.11375067       0.31312912      -0.51742608
Li       2.48314396       0.16791144      18.27385033       0.54917914      -0.20927545       0.60148667
Li       2.15840094       4.04166321      24.31156520      -0.13963288       0.12105658      -0.19819755
Li       9.51333245       2.01273475      12.48368166      -0.34537123       0.41164097      -0.14577082
P        0.37998198       0.92245959      15.54358952      -0.29086490      -0.89035374       0.35027729
P        0.01575696       5.40523984      21.41938577      -0.54182216      -0.81622695       1.96672919
P        3.86595568       3.49806172      11.15475552       0.88974921      -1.95406772      -0.10574004
S       -1.25897111       2.09878892      14.94696973       1.12451423       1.12273920       0.92308626
S       -1.43154687       6.56189580      20.51605406      -0.82644844       0.58765086       1.03301155
S        2.72236498       5.95190227       8.05479022      -0.25023454       1.46477034      -1.43590863
S        2.13800263       1.86128019      14.82451100       0.75746056       0.34049648      -0.28404262
S        1.78472523       6.40380827      20.99317317      -1.32506367      -0.14317184       0.30541077
S        6.81358874       4.02952388       8.60391311      -1.49603851      -0.00474577      -0.96798169
S       -3.80423594      13.28085444      16.29004328       1.31784448      -1.76235366       0.57114915
S        0.30825675       3.29041454      21.09189655       0.03317357       1.27479872       0.51633828
S        3.04547817       1.80144027       7.81369186       0.17802954       1.16517103      -0.60864070
S        0.44214857       1.06011258      17.64858545       1.02473677      -0.06740055      -0.99031102
S        0.07778041       5.66270240      23.50841880       0.40056317      -0.21366218       0.19605987
S        5.10179319       1.53705082      11.26936670       0.64707975      -1.42986834      -1.08250450
S        4.20470742       3.65125189      22.90073922      -0.71052726      -0.21010773      -0.27540566
S       -5.94686314      11.66511764      12.05063194      -1.08515863      -0.26885896       0.82020879
S        0.51312266       5.33703345      17.29611457      -2.88890044       0.58434881       0.11336573
Cl       0.95076125       2.02721486      24.58824368       0.22452540       0.53966676       0.90102468
Cl       3.95142178       4.02091130      18.62960657       0.05163061      -0.03785827      -0.74283550
Cl       0.62799986       4.92833318      12.91410155      -1.98104297      -0.05118961       0.33705491
Li       9.32557657       0.81491109      23.10733451       0.67855545       0.11618348       0.17630720
Li       5.51135911       5.57808947      17.78539985       0.10067548       0.18626427       0.37531261
Li       9.17530389      12.69764308      13.55149850       0.64644736      -0.13504108      -0.08298193
Li       6.16342882       4.08845881      24.11612000       0.65784001       0.49244806      -0.38012738
Li       5.87714233      13.02160027      17.07852761      -0.43276975      -0.19374621      -0.74321532
Li      10.94336677       3.34670780      14.60997534      -1.38369411       0.51205548       0.37244013
Li      12.03713847       2.60554589      23.51688799       0.44561986      -0.18222773      -0.07679800
Li       8.18508672       3.05130867      16.90991255       0.29868054       0.56674591       0.41422650
Li      11.47451254       5.38159633      12.65443884       0.02099362      -0.77554312      -0.27425614
Li      11.17421526      -0.50387326      14.96983466      -0.11065189       1.08903943      -0.19607358
Li       9.14194830       5.04856868      19.53835086      -1.22577131       0.50925741       0.07010097
Li       6.50067876       2.61949968      13.11203438       0.20164005       0.81771035       0.37520643
Li      11.36141280       2.84473602      20.83884035       0.27103202      -0.11987634      -0.33157779
Li       1.92961185      12.15042495      12.44048133       0.06887902      -0.27037800       0.52428931
Li      12.33849276       3.16886565      17.21502981      -0.08867672       0.08482609      -1.13805972
Li      10.41350211       0.85587761      18.69906564       0.20770548      -0.20138828      -0.03086567
Li       8.82546758       3.83691425      23.18726854      -0.27042518      -0.12552458      -0.12852059
Li      -0.16328911       2.35098015      12.47089150       0.65261009       0.58057938       0.06243537
P        8.04227473       0.51615720      15.24939243      -0.94548762      -0.06994694       1.48196187
P        7.72846076       6.03413209      21.64561042      -0.19654175      -0.15919543      -0.33072914
P       11.91581760       3.11508078       7.26872978       0.37604383       1.95970008      -1.23884465
S        6.06183785       0.46758214      14.50246220      -0.63700874       0.19622407      -1.74256055
S        5.82389701       6.68365455      21.03126762       1.36866397       0.12211722       0.79145358
S        9.97472388       2.38726179       7.38767881       1.90640967      -0.07235161       0.64562009
S        8.74727333       2.43003375      14.66944312      -0.99954556       0.26929040       0.69388729
S        9.09328248       7.14401275      20.66497845      -1.29416399      -0.22589511       0.45189208
S        0.50713666       3.49398091       5.68545458       0.26395956       0.39454608      -0.70010390
S        0.71913170      12.05127419      14.35648340      -1.07899273       2.91638893      -1.12617636
S        7.70054945       3.86584220      21.10382573      -0.37750844      -0.52530632       1.76153555
S       11.86965850      -0.18364203      10.05019578      -0.33639749       1.19769328      -0.44668809
S        8.03817322       0.49993536      17.24675256       0.71221191       0.34496805       1.76280152
S        7.91009355       5.91577279      23.84161521       0.19521070       1.46636391      -0.11137912
S       10.96517886       3.53667143      11.21936648      -0.41298473       0.48521389      -0.81250239
S       11.03289699       4.48752333      22.76829463       1.95728944       0.09031022       0.56160683
S        8.16505277       0.67896451      10.82771385       0.72825459      -0.89587532       0.97094204
S        7.80127186       5.50666934      17.37449139      -0.17934391      -0.38553944      -0.34322199
Cl       7.66562846       1.92396659      24.05575772      -0.52471815       2.46743841      -0.36375585
Cl      10.07955401       3.03887240      18.47936312       0.49170438      -0.94175890       0.01332865
Cl       7.61069557       4.50466735      12.12865932      -0.65364756      -1.79694081      -1.08484894
Li      -1.57372043      11.31144462      19.16217834       0.28097427       0.08019072      -0.22425523
Li      -6.03102492      11.13745422      20.34609905      -0.27991148      -0.10819248      -0.78998991
Li       1.27442908       7.23541907      13.45563443       0.31975716       0.49670723       0.30534554
Li      -5.05022543       9.86832654      22.90516358      -0.11999391      -0.33315981      -0.78661809
Li       2.37323570       6.02398287      18.62423240      -0.07540675      -0.36007095      -0.38009041
Li      -2.75390433       8.79027451      13.04647816      -0.09214437      -0.54842094       0.29893763
Li      -2.94614954       6.48165006      22.50067298       0.84529602       0.26267781      -0.37692274
Li      -4.83530993       9.61960849      16.84111190      -0.48096254       0.34302341      -0.03451672
Li      -0.60665582      13.47905205      12.97408871      -0.86143699      -0.06439805      -0.63454570
Li      -0.57907153       4.41819557      15.46595937      -0.20854434      -0.10621969       0.03014742
Li       0.85785023      11.15744626      20.88447674      -0.22696419       0.59447310      -0.52517596
Li      -5.85607250      12.11211406      14.47365393       0.00269122       0.03419023      -0.05332121
Li      -0.00944638       8.67775105      20.67556959      -0.18384669      -0.29136860       0.00538607
Li      -1.33879377       6.18744544      13.20042401      -0.36714526       0.75228039       0.36584178
Li      -1.49020051      10.85976124      14.48891572      -0.28986682      -0.04619243      -0.51570167
Li       0.04503300       7.61747203      17.35429744      -0.32444929      -0.32873706      -0.78552301
Li      -0.48915229      12.13171066      22.93618073       0.24991375       0.76455369      -0.56500682
Li       5.02315354      12.22316857      14.48908747      -0.38648687      -0.03830744      -0.08642797
P       -3.05101155       7.13519986      15.35040127      -0.01031296       0.11897974       0.43848538
P       -3.03579027      12.46303952      21.60459608       0.78836210       0.69070340      -0.33282143
P        2.54787765       9.35224135       9.96230882       1.52408714       0.80169387      -0.42890108
S       -4.58118225       8.04523337      14.45082775      -0.96917700       0.04524781       2.38704543
S        3.18636936      -0.22598639      21.25554013       0.57450431      -1.33298494      -0.16519308
S       -0.85399738       8.71200017       8.62352447      -1.68550942      -0.45591804       0.57105577
S       -1.11860628       7.99305820      14.65009592      -0.09206200      -0.78174949       0.21460499
S        3.92986299       1.31768579      20.00821072      -0.96832817       0.31527128       0.33635665
S        1.24475474      11.25250916       5.89587281       1.43100629      -0.61389020       0.41384122
S       -2.92278548       5.13241310      14.94336938      -1.53281935      -0.14191538       1.68808280
S       -3.33211557      10.47049773      20.81140112      -1.46245377       0.64619050       0.03202516
S       -0.01914926       7.39084296       4.71754732      -0.74282220       0.14114875       0.14714735
S       -2.99338348       7.49969170      17.26682206       0.65658122       0.06650617       0.42835257
S       -2.92900930      11.98718582      23.56001484       1.44409430      -0.88222903      -0.87099699
S        1.33576925       9.05332363      11.74399115       1.57235713       0.65364307      -0.73608550
S        0.50326921       9.91218825      22.67691614      -1.59466424      -1.01241931       0.85732997
S       -2.85927395       6.92003094      11.48232137       0.14608515       1.05831857       0.58273538
S       -3.69119721      11.45756479      15.27866805      -0.13850922       0.03958822      -1.80612744
Cl      -3.62048763       8.26834116      23.73248642       0.27276443      -0.05667995      -0.03083062
Cl       0.32468297       9.89105362      18.77367067      -0.17390644      -0.55190412       1.40436159
Cl      -2.04638736      10.63536489      11.91790434       0.04058158       0.40870531       0.05512884
Li       5.92768155       9.16395182      20.71293381      -0.52979173      -0.34597914       0.05606203
Li       2.06497698      13.27261270      16.05374393      -0.25261381       0.31713119       0.27907211
Li       8.45457999       6.88836735      11.64610771      -0.50514945      -0.14396879      -0.53794508
Li       2.80809717      10.23239174      23.15095381       0.78863229       0.36292244      -0.16258025
Li      10.70685397       5.47372545      17.18099218       1.04216544       0.12073121       0.28065424
Li      10.39513306       8.28129468      13.31636581      -0.78342639      -0.31969923      -0.11070610
Li       6.17324506       8.13001029      23.15429088      -0.18074767       0.23460100       0.39251470
Li       2.56601501      11.25283499      18.65064290       0.08934414      -0.47208542       0.04510613
Li       9.08361854      10.14691875      14.90981678      -0.14023563       0.05336827      -0.65448911
Li       7.07953282       6.79842244      15.41884502       0.03967113      -0.16921834      -0.96438774
Li       7.72663681      11.35227552      20.50312875      -0.80202763      -0.49861297       0.39718326
Li       2.20752189      10.52824731      15.33291277      -0.37484750       0.21091693       0.15045189
Li       9.18125771       8.87890473      22.41572522      -0.05464573       0.78336080       0.23178632
Li       3.42342329       4.88280470      13.19156481       0.94487513       0.09239481       1.01809139
Li       5.65919688      10.28759724      16.92433851       0.63792397      -0.40886768       0.49352713
Li       7.84221551       7.60214898      18.55045257       0.83100136      -0.48136109      -0.59778851
Li       6.16312187      12.17341117      22.87719585      -0.25692487       0.82861529       0.85383470
Li      -5.01115498       6.85360206      12.46500289       1.10326856      -0.21495867       0.25919991
P        3.93332607       7.48359868      16.22977376      -0.52711861       0.87872647      -1.76070001
P        3.78320098      12.24008850      20.96361416       0.36402473       0.26572765       1.10399719
P        7.47900757      10.21221237      10.17290706       0.27213746      -0.90213930       0.36946287
S        2.04478581       8.31957016      15.55779530       0.97183815       1.13558950      -1.27783821
S       10.11746509       0.12033375      21.11359426       1.95926198       1.05237339      -1.28509994
S        5.30344427       9.97566946       6.64211661       1.14665314       0.76425728       0.09928717
S        5.43670134       8.45964206      15.28420020      -1.49594596       0.79146504       0.82482650
S       11.75959637       0.29267437      22.23845620       0.16238130      -0.47942107       0.27259848
S       -3.26050791       9.73419514       6.17341010      -0.36821613      -0.23477575      -1.02196460
S        4.30162557       5.52368122      15.43624854      -0.74188595       1.30241909       0.10911713
S        3.52807397      10.23375658      20.52124251       0.67071295      -1.02075408      -1.48092176
S        8.99783764       6.65935065       6.97671433      -0.66473208       0.09855442       0.96882748
S        4.15873138       7.69482196      18.17881401      -2.49369382      -0.88271920      -1.02013171
S        3.70503243      12.66664508      22.94410267       0.22249263       0.37495978      -1.38733989
S        6.76943077       8.06008322       9.84120332      -1.19894095      -0.09768545       0.62864773
S        7.22950093      10.24617267      22.55045135      -0.45129958      -0.23000765      -0.44893331
S        3.99609333       6.85338299      11.92331755      -1.06675129       0.33270945      -0.99496247
S        3.80983559      11.78324404      16.63675073      -0.48015424       0.15947160      -0.95620406
Cl       3.76215737       7.97832195      24.05132622       1.45318034       0.59933595       0.18099562
Cl       7.26509080       9.81767191      18.77553352       0.05191970      -0.14421134      -1.66566934
Cl       4.29265948      11.81531038      12.38354233      -0.18615008      -1.36349947      -0.14053130
S        8.74804462      10.75554901       8.63833684       0.93953734      -0.03604424      -0.73123725
S        1.25144814       0.70605684      10.99706815      -0.60657800       0.07510693       1.15120231
S        1.12134155      13.09602722      10.52499524       0.00328808       1.23767776       0.23998044
S       -0.95679432       0.96942191       7.82617002       0.75932367       0.04905478      -0.50568105
S       -9.07304332      10.92110310      10.07452839       1.18895837      -1.46690147      -1.18690274
S       -6.29680723      12.25543019       8.05551268      -1.52602050       0.16120295       1.22992771
S       12.93583503       4.65072836       8.10594064       0.20365586      -0.97530958       0.50216621
S       -2.18079137      12.85589530       8.24018023       0.17550399       0.31075298      -0.00640880
S        4.83988767      12.84244163       8.76550114       0.44988048       0.18084114      -1.29904624
S       -4.74695418       3.71647234       9.44850286      -0.07953176      -0.08134428      -0.06883708
S       -3.05336421       6.14036589       6.84336626       0.46867376      -1.88722679       0.65172562
Cl      -2.92825908       3.28580967      18.38187127       1.48006651      -0.22727268       0.11141654
S       -2.54119617      14.25340331      11.90417268       0.34158050       1.87612534       0.03076810
S       -1.78999727       4.67325004      23.85973091       1.49447846      -1.23502499      -1.12722632
S        3.85138700      -1.18134773      17.17585473       0.24100242      -0.95919717       1.55131921
S        4.44901340      -0.49773136      22.84497062       0.12241611       0.60026322      -0.76451392
S       -2.44834255       2.36376044      11.44950270      -1.27673875      -1.02703432       0.22808800
S       -0.00534032      -0.94512103      14.85289300       1.38675692       1.16785908       1.19444510
S        5.49462158      13.18644365      20.26359472       0.69000216      -0.47302993      -0.75440100
S        7.37351402      13.37087905      15.20276913      -1.06543961      -0.20889051      -0.50211656
S       11.27407721       0.60636355      24.29009510       1.25223099      -0.53013344      -0.45001628
S       10.76986261       7.41585003      10.86409203      -0.73643743       0.54632603       0.15230149
S       12.41657721       4.91335455      15.37837045      -1.01999524      -0.93542966       1.25333046
S       12.01797751       0.11616018      16.97169012      -0.05881297       0.21080750       0.38022561
S       12.71957749       1.41232914      15.37359892      -0.57621713       0.33915771       0.95202276
S       12.22626971       5.64722305      19.04686633       0.26519942      -1.24999087       1.13776613
S       13.14366416       3.75804878      19.39315785      -1.28269868      -0.00978767      -1.03259530
S        8.96502337      -1.11115669      14.34018491       0.56221191      -1.70812535       0.52979286
Cl      -6.16067621      10.99757697      18.06771034       1.20974517       0.09785186      -0.79719016
S       -5.38751608      14.20541391      15.27179230      -0.87866517      -0.31656632      -1.59225413
S       -4.53968548      13.80085900      21.14464150       0.25203446       0.39616311      -0.87483755
S       -6.92242033      11.05475317      22.49686345       0.74652761       0.28562123      -0.06993215
S       -1.04557829      12.96501563      20.79374503       0.04496363       0.81040272       1.28014395
S        2.18046668      13.02878000      19.95217569       0.02283873       0.70118783       0.32303772
S       -6.76459379       7.87572056      11.20271744       0.12164844      -0.74806767      -0.10416862
S       10.57333035       5.68106806      14.94451140      -0.04654773      -0.92974773      -0.13692549
S        8.05917555       8.16036676      13.77763216       0.74062880      -1.37149819      -0.15336604
S       10.39724931      10.78269928      13.06112563      -1.20093951      -0.38313535       0.37513876
S        7.08011997      11.29828567      14.94390499       2.04697655      -0.17722440      -0.77001303
S       11.09556599       9.87079108      23.16843030       0.48540732      -0.40538815       1.27173535
S       10.18908891       8.71380297      24.68935521      -0.65778174       0.38646766       1.20903185
Li      -6.60638265      10.70520975       9.80727532      -0.27901186       0.24420634       0.41261665
Li      -1.55949620      11.74502354       5.90858711       0.59466158       0.13523592      -0.84905006
Li      -7.46963694      12.77306409      10.63555063       0.41613970       0.02242236       0.84930610
Li      12.59723804       2.44036691       9.74883939       0.80765411       0.44556550       0.06419748
Li       3.19226996      14.25380589      10.00121614      -0.32673105      -1.26613300      -1.06421006
Li       8.08756644      10.25345305      12.62938263      -0.01786925       0.68352288      -0.17935695
Li      -3.42870235       1.66978862       8.55859883      -0.03492711       0.12176290       0.11191526
Li      -4.66423828       4.67060557       7.26311094       0.12053165      -0.40726820      -0.38915633
Li       0.89966934       0.17798635       8.77745297      -0.03371828      -0.27031406       0.87118573
Li      -8.45183401      11.27556899       7.88645165       0.93840496      -0.13480558      -0.17666777
Li       9.90930927      -0.80929348      11.37757709       0.81349352       0.43530972       0.82884452
Li     -11.50046096      11.22934890      10.26908746       0.08842469       0.36820593      -0.29387678
Li      -8.53404994       8.54305695       9.66220073      -0.01588124      -0.28635539      -0.30295196
Li      11.81520923       5.33627524      10.11791738       0.52465512       0.01200289      -0.64717928
Li      -3.76955632       4.00152016      12.57198920       0.13298764       0.66899651       0.10550439
P       -2.62514483       3.76751017       9.86478051      -0.75350569      -1.60692708      -1.32674132
Li      -4.32744286       6.01823760       9.71886268      -0.48131031       0.45567800      -0.03094930
P       -6.02829028       8.29660735       9.27860556       1.03370130      -1.20779386      -1.09082221
