279
Properties=species:S:1:pos:R:3:momenta:R:3 LayerForceGeomOptConstraint=T E_ref=-1062.0586912175975 step=1700 pbc="F F F"
Li       4.39908652      13.53880156      18.23676427       1.21688077      -0.86338509      -0.58662839
Li       6.83200448      11.91069859       7.71037856      -0.07035042       0.65088017       0.29595926
Li       2.84371477       1.56556328      12.70548051      -0.13860795      -0.53847333      -0.76411781
Li       3.83531571       6.13091264      22.52399111       0.21378123      -0.10967825      -0.21316343
Li       1.00003207       7.46970834       9.73855060      -0.46396128       0.47035894       0.22770558
Li       7.40111581       2.51395037      10.36169934       0.39217969       0.77693976      -0.11431567
Li      12.30548276       0.48941795       7.78753809      -0.00224108      -0.39794994      -0.17309906
Li       2.58000182       5.28187362      10.89691121      -0.61128876       0.39012181       0.05685237
Li      -1.48686894       2.04349997       5.34077562      -0.58876042      -0.26432329      -0.20076273
Li       6.73595136      -0.18377631       9.96967641      -0.22593424       0.21383798       0.47502962
Li       5.88790566      12.05680298      11.09844754       0.30708079       0.27583809       0.31454674
Li       0.20165581       5.67680489       3.98949437      -0.09262407      -1.11602974       0.34188836
Li       3.41368742       0.35734806       5.88235955      -0.17659192      -0.04327244      -0.14238527
Li       3.18986046       0.64920432      10.08283025       0.31957917       0.17771721       0.25670350
Li      -1.78870010      10.38519590       7.75649585       0.16800373       0.15616501      -0.23440889
Li       0.73011657       1.90496950       6.72447758      -0.15361906      -0.15974811       0.11406082
Li      -5.59116595      13.07004179      22.97400219       0.10643273      -0.30740488       0.04551585
Li      -1.17908851      14.05774066      10.05436137       0.22790157       0.61488781      -0.39849393
Li       7.98771028      -0.91823464      13.03924054      -0.44873398       0.47846275       0.61274414
Li      12.91633161       5.04738888      21.66075429       0.30228880       0.52758435      -1.03513299
Li       9.79250616       5.27716161      10.02359739      -0.46147112      -0.14835372       0.13854560
Li      -1.42394115       3.60378378       7.37211157       0.02402783      -0.43812109       0.80003391
Li      -5.25554826      10.20023694       7.61559305      -0.10250359       1.19134337       0.48196377
Li      11.28269939       5.57463778       6.97675874      -0.12974772       0.58550917       0.21014513
Li       5.43275862       2.10011712       7.25675644       0.51081140      -0.67014597       0.05487388
Li      14.11353635      -1.36999365      10.64187351       0.34543767       0.48246733       0.13100145
Li      -8.35977361      10.23967954      12.16633503      -0.14636261       0.38106098       0.54935584
Li       4.08865554       3.72022205       8.87505824      -0.12539428       0.25737661       0.32045787
Li      14.69187165       3.07593104       6.69134156       0.45029707       0.08266083       1.05777763
Li      10.51844542       1.72230817      10.00094326       0.23304146      -0.09341694      -0.42783933
Li      -3.33881985       7.97611274       9.06056077       0.38089843       0.21266293      -0.23626412
Li       8.48681278       3.84112923       7.25985446       0.53345767      -0.05376475       0.70698785
Li      10.34993949       6.32727853      23.34748683       0.01427223       0.21641291      -0.00481384
Li      10.37513205       9.76846825      10.71995476       0.32278826       0.21697513      -0.36173815
Li      -4.51759063       9.45611757      11.20081727       0.23295785      -0.19170754      -0.01482386
Li      -2.11343694       9.53756463      22.95310192      -0.36554849      -0.36685366      -0.20843816
Li       0.20832950      11.08279394      10.83481168       0.69880568       0.22439383       0.33084502
Li       3.95691249       7.51844610       9.61813954      -0.28624247      -0.42880617       0.31539644
Li       0.75182161       6.66990232       6.96371584      -0.20620779      -0.07583999       0.25578229
Li       0.86456130       9.63618200       7.96515593      -0.55819054      -0.27924551       0.62005786
Li      -3.88931725      12.40257898       7.08172718       0.36910016      -0.06574301      -0.17272295
Li      -2.10135367       9.33579738       4.12028145      -0.21208624      -0.26676961       0.33358260
Li       5.75068812       4.91047244      10.87803861       0.13505790       0.17819525       0.32948396
Li      -4.27620118      12.50570291      12.81638028      -0.35031820      -0.36244966       0.67864147
Li       3.09216318      12.08354159      10.33133169      -0.38293898      -0.20168569       1.33464897
Li      -1.37131680       8.83181448      11.35082671      -0.07478433       0.22288793      -0.42290504
Li      -1.68681755       5.60228219       5.41307433      -0.38129094      -0.63470656      -0.50841132
Li       0.62398295      12.94597396       8.02375461      -0.48228683       0.08179252       0.17127907
Li       1.19320091       8.12331025      23.65840320       0.87494527       0.51941438      -0.03395061
Li       1.92117964       3.02010139       9.96169606      -0.11109319      -0.16352091      -0.41231072
Li       4.01810531       9.31196437      12.10518928       0.24835530      -0.21322492      -0.19620308
Li       9.23765409      10.65584585      24.15352454       0.45777232      -0.19683564       0.91836841
Li       5.07392257      10.09476290       8.97076573      -0.89822285       0.05924084       0.66627459
Li      -4.49942907       7.54068931       6.19131893       0.11994655       0.45205525       0.45781925
Li      -1.94824244       8.05431149       6.70076025      -0.99807463       0.63809203       0.24456078
Li       3.32736109       9.51537221       5.76308907      -0.67076108       1.03865441       0.17205685
Li       1.07011263       9.45480259       4.63620819      -0.14307497      -0.11566528      -0.24987093
Li       7.37791232       5.89215539       8.40140333       0.26436236      -0.52780984      -0.13027272
Li      -1.54246774       5.93882608       9.29907047       0.13513899       0.85140076      -0.15818426
Li       3.89632051      11.50341070       7.24251518      -0.00987007       0.37313174      -0.25903127
Li       7.25882571       8.83679092       7.27989304       0.35679634       0.13529283      -0.41822485
Li       6.27194457       7.47134612      12.93244845      -0.33341180       0.14117042       0.08406798
Li       2.04204553       4.08446599       6.86189298      -0.34745570      -0.23372672      -0.83013439
Li       9.89628786       7.97420982       8.35943218      -0.23311890       0.38154422      -0.11417145
Li       2.92205076       2.98882240      20.93005595      -0.50876779      -0.30442923       1.03589108
Li      -2.01564694       5.76112896      18.16758367       0.52453984       0.39900123       0.24084760
Li      -3.51825571      13.02270590       9.72189849       0.58197338      -0.60055352       0.65419371
Li      -0.62530490       3.06421779      23.17453430      -0.02821882       0.06627786       0.01068394
Li       5.17830607      -0.68324445      18.47204030       0.21702971      -0.09155411      -0.13496458
Li       0.06305149      -0.31777508      13.16700234      -0.90363803       0.24355717       0.18164333
Li       3.13707758       1.53794878      23.76147293       0.27833908       0.86324500       0.09521788
Li      -1.81200272       1.71099655      16.93109840      -0.42720073      -0.50947995      -0.78632624
Li       1.96920207       3.62342977      17.16119465      -0.05655301       0.18726330       0.23193190
Li       3.81949598      -0.56941349      15.81095344      -0.18713813      -0.60128624      -0.19324657
Li       5.16446473       4.44020104      20.88179343      -0.56861859       0.17101565      -0.21507909
Li      -1.01755554       1.39932515       9.94940605      -0.03343187       0.49550536      -0.13207491
Li       5.76574067       1.28134292      22.38682762       0.52583576      -0.09787011       0.09494816
Li      -3.98081913      15.02540458      13.53194425       0.46133440       0.00887477       0.30832889
Li      -0.40896469       3.48782968      18.74936481       0.37776649       0.49929963      -0.14986742
Li       2.40592737      -0.15330972      18.47850917      -0.19805063      -0.00160138      -0.27477946
Li       2.03541445       4.19570392      23.97059204       0.06810321      -0.00388881      -0.23510555
Li       9.31545370       2.36361339      12.41976235      -0.46759251       0.30205977       0.22195812
P        0.68234692       0.99400610      15.61037388       0.81010785       0.39088269       0.54130213
P        0.11732556       5.60302400      21.31775705      -0.32929320      -0.88444263      -0.52885174
P        4.01876725       3.17082972      11.27146595       0.68995278      -0.30645810       0.22974316
S       -0.91856212       2.13244772      14.73859210      -0.17525090      -0.49457346      -0.84571179
S       -1.61106865       6.63477118      20.70225687      -0.03073845      -0.07082175      -0.82262369
S        2.02514362       5.47248891       8.70856818      -2.41510634       0.11700790       1.78933864
S        2.50439369       1.85077320      15.07125721       2.36226118       2.61864475       0.92013397
S        1.85288802       6.71301095      20.90132908       1.77804407      -0.23070035       0.51907473
S        6.50014032       3.80358291       8.40717625      -0.83100819       1.45401166       1.36852069
S       -3.75017178      13.62458333      15.98779232       1.43220246       0.28618713      -1.92183327
S        0.38733108       3.54216103      21.05231115      -1.23962567       0.40419604       0.85973631
S        2.96806522       1.69248492       7.62128015      -0.86632332       0.18254738      -0.47899294
S        0.52472411       1.35373014      17.70940889      -0.61096069       0.50263909      -1.88947906
S        0.06967495       5.89610930      23.43801278      -0.42227648       0.29579709       0.43473302
S        5.04635007       1.16702062      11.35973619       0.63163354      -0.42304788      -1.35698466
S        4.14320688       3.75446281      22.80936958       0.81057490      -1.02622704       0.80299660
S       -5.89715330      10.94672492      12.45979840       0.08563088       1.36459299       0.14241979
S        0.17598713       5.36494176      17.24548325      -0.68734059      -0.06677499       0.05497312
Cl       1.02251276       2.25256798      24.59060398      -0.23248762       2.70773985       1.52999547
Cl       3.80550768       4.20073672      18.94023407       0.50436162      -1.14965856      -1.40349338
Cl       0.61408959       5.22745422      12.69460226       0.28873503      -1.98087901       0.66717920
Li       9.51666932       0.24126524      23.39515147      -0.09497379      -0.31708154       0.03206900
Li       5.45156926       5.61810077      17.93634814       0.14321355      -0.10983367      -0.25107265
Li       9.74978207      12.25974226      14.26162973      -0.12535925       0.23411634      -0.13129599
Li       6.46173391       3.68388805      23.89506488      -0.13753578       0.36577331      -0.05003820
Li       6.89737369      12.17038378      17.02230729      -0.00565569      -0.25614167       0.05722217
Li      11.30054561       3.50456299      14.16599089       0.54050761       0.16311662      -1.20029251
Li      12.47916155       2.42638530      24.16078347       0.03072027      -0.04528168      -0.35010546
Li       8.00071351       3.49485767      16.87712562       0.08036049       0.80607065       0.32828303
Li       9.91321695       5.58011107      12.90807368       0.23815335      -0.27679243       0.16950591
Li      10.56293189       0.53953526      15.57288881       0.04453765       0.08576280      -0.11997408
Li       9.23064542       5.00219265      19.46294394       0.14127386       0.34810204      -0.74525835
Li       5.94153877       2.47536535      13.28487134       0.19902715      -0.45198404       0.38170140
Li      11.45094705       2.81674414      21.13131026       0.85840015      -0.11585124       0.33435005
Li       2.14658090      13.45765624      12.86508900       0.42612155      -0.22414419       0.56161992
Li      12.49018158       2.51668408      17.76379136       0.60286791       0.52387927       0.14889798
Li       9.97161309       0.37515598      18.79791575       0.90347617      -0.15177083       0.59975758
Li       9.15761866       3.36218396      23.36947344       0.13693559      -0.27873867      -0.58513489
Li      -0.47625238       2.65907132      12.40328530      -0.02268088       0.91867385       0.18044107
P        7.74703303       0.06793958      15.57768755      -0.03902973      -1.07178650      -0.44781699
P        7.59585826       5.90202254      21.78320669       0.21397279       0.70773881      -1.17034753
P       11.92970831       3.07186687       7.03519383       0.54728754      -0.76836110       1.22706572
S        5.91214974       0.15343824      14.51237547       0.98183508       1.20678757      -0.15617991
S        5.83995981       6.80192125      21.05641868       2.04070075       0.54952912      -0.47791394
S       10.23847403       2.17251314       7.63344909       1.43200098      -1.32874633      -0.70093547
S        8.50452777       2.06212988      14.90939786       0.20101125      -0.17411799       0.26155373
S        9.36534886       6.84184029      21.06698971       0.00619571      -0.65431141      -1.06200816
S        0.08201014       4.10161368       5.64267579      -0.89810589      -0.70841075       1.83253118
S        0.58329516      12.48745122      14.26229740       0.52585600       0.45497615      -2.34573089
S        7.64286203       3.91372134      21.24186720      -0.33538303      -0.49689225      -0.58909765
S       12.59435808       0.28381937      10.18665892       1.10133829      -1.63811163       0.99191782
S        7.37030636       0.15804997      17.67250203      -2.67073504       0.45075510       1.65828844
S        7.66831510       5.90660586      23.86044909       2.09460347      -0.55183094       0.27218301
S       11.03764924       3.90045325      11.63665599       0.55750035      -0.40398226       0.10337331
S       11.28394996       4.18675222      23.11689719      -0.83661569      -0.79416898       1.40308274
S        8.78160471       0.54949727      10.99656952       0.45991057      -1.21237954      -0.65426694
S        7.66541962       5.85655459      17.45431253      -1.56216900      -0.04390486      -0.11306250
Cl       7.63074645       1.66186017      24.13346230      -0.44162292      -0.45636111       0.20073319
Cl       9.78421166       3.13174577      18.16709255      -0.29277820      -0.01625884      -0.29642977
Cl       7.58983863       4.09006241      12.07414366      -1.22138159      -0.64143737       0.57788859
Li      -1.52628825      11.75597063      18.58395744      -0.62223140      -0.37403095      -0.19310707
Li      -5.61607780      11.67803345      19.85480570      -0.32694262      -0.22241971      -0.65033099
Li       1.69284615       7.33179960      13.04077634      -0.35802402       0.39121768      -0.03890012
Li      -5.02433649      10.15731704      22.64083904      -0.03572251       0.49316894      -0.60422986
Li       2.45868474       6.21689976      18.56488246       0.48174448      -0.48443694       0.25312182
Li      -3.94064228      10.15965909      13.72902209      -0.43276887       0.54536505      -0.12944079
Li      -3.06081242       6.31033663      22.64818995      -0.45173304      -0.26663722       0.28587716
Li      -4.62833973       9.51965202      17.14285340      -0.25278717       0.10086722      -0.27144256
Li      -0.86810820      13.66260658      12.87693989       0.34577315       0.16435781       0.75680114
Li      -0.89407651       4.66645921      15.40580958       0.20816527       0.27525931       0.70265308
Li       1.21390637      11.49977775      20.59385983      -0.29852898      -0.29749935      -0.29047482
Li      -6.16069345      11.60185913      15.11827729       0.24399517      -0.05766836       0.11355577
Li      -0.10559453       8.64802017      20.45023439       0.05591068      -0.01620756      -0.67677925
Li      -1.35105126       6.54224492      13.01782182      -0.36530957       0.21018614       0.05449247
Li      -1.04856625      10.74488774      15.07978266       0.25868308       0.45258573       0.92016701
Li      -0.28490720       7.51305935      16.62890552      -0.07538870       0.52961414      -0.87072840
Li      -0.48616349      12.08073884      22.90087107      -0.55067424      -0.42874664       0.10544923
Li       5.18546169      12.71252566      14.64285028      -0.02043822      -0.41093033       0.39477631
P       -3.11665755       7.42619560      15.20437760      -1.48506913       0.50733905       0.13713107
P       -2.95289369      12.34309407      21.28892383      -0.79137292       1.09507710      -0.40070732
P        2.48195837       9.60328763       9.67970123      -1.43041874      -0.43578429      -2.28525415
S       -4.93184033       8.23126953      14.69270724      -0.92637233      -0.87933516      -0.45751081
S        2.85097387       0.06122283      22.00425158       0.25901531       0.61410352       0.14972921
S       -0.84311589       8.38359987       8.66856296      -0.91567924       0.34076690       0.23584940
S       -1.36721635       8.55416988      14.38574492       0.54753886      -1.41450188       0.06838220
S        3.93148444       0.90647994      20.36968748      -1.38149693      -1.30336328      -0.64525561
S        1.39878889      11.00333777       6.09472428       0.80793411       0.24782843       0.16277122
S       -3.00016981       5.54008550      14.54954551       0.32520376       0.61328232      -0.02800691
S       -3.33145422      10.55817577      20.26424567      -0.06820509       0.76135510      -0.15249103
S       -0.41822980       7.58641878       5.01715695       1.18851313       0.69903015       0.18642623
S       -2.84893672       7.79428722      17.16088941      -0.58335326      -0.37042043      -1.85362879
S       -3.00591981      11.87614887      23.32608921      -1.07265382       0.81819010      -0.38523387
S        1.37365856       9.16128666      11.56821904      -1.74734694      -0.39601046       1.00953569
S        0.40799978       9.97558779      22.62574464       0.33155135       2.11004649      -0.35156575
S       -3.06282326       6.90628331      11.29053481       0.40479726      -0.19804906       0.72681668
S       -3.40288425      11.53394066      15.55639761       2.06308770       0.15150799       0.79237341
Cl      -4.09743544       8.23216554      23.37295125      -1.41193276      -0.99709309      -0.13640553
Cl      -0.03847329      10.05462977      18.26808594      -2.37902777       0.77836412      -0.84426006
Cl      -2.39339048      10.79940857      11.59619364       0.41207208       0.22820057       0.00896532
Li       5.60441380       9.27281030      20.71075956       0.87738244       0.08654437      -0.03809927
Li       1.82217465      12.62629652      16.40460847       0.26765922      -0.38438123      -0.24284622
Li       8.54086821       7.70922159      11.27979015       0.33208008       0.48047451       0.15368090
Li       2.80378794      10.20311967      22.90118332      -0.16338525      -0.21177876       0.04990413
Li      10.58589169       5.33314220      17.28931060       0.26551226      -0.17577706       0.00356347
Li      10.73108966       8.14024813      12.90142111       0.11286184      -0.21946022       0.83864229
Li       6.14714617       8.11516565      23.46581124      -0.22058162      -0.57493569      -0.24171579
Li       3.01755074      10.39941790      17.98598008       0.07681522      -0.97897650      -0.59046265
Li       9.07674207       9.58464676      14.90373093      -0.49912307      -0.07252595      -0.05847114
Li       6.89426778       6.85618697      15.33765880       0.35553607      -0.04816250       0.87246362
Li       7.14724384      11.31519085      20.57688331       0.36568061      -0.27260838      -0.11050135
Li       2.54346741      10.89141801      14.62312976       0.51097040      -0.32565731       0.04111953
Li       9.37070093       8.91427770      22.19323410      -0.57767404      -0.10356012      -0.04375109
Li       2.98633193       4.76206430      13.46404860       0.13629400       0.27629586      -0.16276503
Li       5.31844684       9.83302050      16.87110722      -0.05301761      -0.07951662       0.26407500
Li       8.01053122       7.55298963      18.91674121       0.04301923       0.14329009       0.02922321
Li       6.03763617      12.39572743      23.03843462      -0.05864290       0.39821584      -0.48191376
Li      -5.30450957       7.04961729      12.61280046      -0.52480173      -0.46643199       0.30772913
P        3.65013645       7.56790228      15.61968932      -0.56004473       0.30567280       0.44057267
P        3.89167924      12.39190209      20.72347878      -1.67117493      -0.79189658       1.29130042
P        7.65812996      10.02259897      10.10787551       0.90351667      -0.25300689      -0.46971733
S        1.79290444       8.21222394      15.12319503       0.29557357       0.33710911       1.23179465
S       10.19778534       0.64907310      21.20038861       0.31381824       1.61682461       1.08584949
S        5.44108190      10.00434969       6.54045185      -0.66371618      -0.67557435      -0.92636313
S        4.97587610       8.93254663      14.73225464       0.18635946      -0.23548533       0.11732117
S       12.07947565       0.36498685      22.15598973      -1.16040117       0.46263464      -0.38279258
S       -3.52391870       9.97769532       5.97447630      -0.28386975      -0.22405408      -0.57209243
S        4.25586292       5.65119618      15.36928960       1.56974863       0.44658544      -1.15952803
S        3.34932940      10.29700372      20.52595569       0.92506084       0.73790587       0.17153682
S        9.26532906       6.27229638       6.88171268       1.27318109      -0.48560973       1.15520294
S        3.86653432       8.12281023      17.67911674       0.36379995      -0.05870732      -1.31968703
S        3.79182636      12.60640927      22.69188086       1.60529297      -1.66257693       1.46713278
S        6.62480424       7.83290000       9.52134539       1.05668282       0.26470912       0.27758955
S        7.08645139      10.29872339      22.51146925      -1.00282845       0.65005039      -0.40879395
S        4.20920214       6.79339088      11.93170355      -0.27746535       0.79534367       0.28329760
S        4.16336026      11.86489632      16.52494630      -0.64158383      -0.24017776      -1.16595884
Cl       3.86639018       8.12032136      23.72373923       0.88008184       0.70523371      -0.76966319
Cl       6.98393077       9.74341977      18.72961234      -0.62475852      -0.48672035      -0.30701364
Cl       4.05460420      11.96280963      12.67811585      -0.52903439      -0.28676848       1.22211714
S        8.76129985      10.26250754       8.41573898       0.20257833      -0.67332445       0.22044784
S        1.05700460       0.96826564      11.06055438      -0.47498989      -0.85466994       0.50639574
S        1.19815129      13.46750855      10.42386613       0.19761713       0.40467159       0.91716981
S       -1.00803388       0.87891687       7.57463486       0.24893014       1.22318694       0.51487827
S       -9.15247977      11.12751915      10.01691970       1.02684108      -0.40360872      -0.63984559
S       -5.62601218      12.28812875       8.72377639       0.42945475       0.75149975       1.70695185
S       13.05274175       4.50323534       8.33751091       0.38794930       0.64858590      -0.24326741
S       -1.64351733      12.86574283       7.91336164       0.39267918       0.87599487       0.00367487
S        5.06557410      12.72051058       9.08685002       0.78355578      -0.14936641       1.70289464
S       -4.75459804       3.06052100       9.14623282      -1.20792426      -0.51972908       1.47309744
S       -3.23492344       6.00683926       7.35565347       0.02129853       1.04074111      -0.13156342
Cl      -2.55580844       3.34721726      18.29113614      -0.05951009      -0.60679754      -1.61770433
S       -2.92725832      14.14827122      11.72037647       0.56092805       0.04637347      -1.32183495
S       -1.56084180       4.95170943      24.28027830       1.96954678       0.27381763       0.46106979
S        3.57543888      -1.89917667      17.75128760      -0.61922145      -1.22879687      -0.90274128
S        4.30727674      -0.51056518      23.39843430       0.25338898       0.03209026       1.88149330
S       -2.66824760       2.25590143      11.54331762      -0.32633049       0.78420854      -0.39070896
S        0.41567244      -1.00068835      15.34505737       0.33894862      -0.44857968       0.09851974
S        5.70438856      13.12086952      19.92257494       0.26592837       0.29253103      -1.83009032
S        7.55435349      13.38160249      14.76455384       0.02317178      -1.01909824      -1.68044358
S       11.77573604       0.16859348      24.29553788      -0.56267781       0.03077818       0.51074441
S       10.76438676       7.30291026      10.39688105      -0.56990942      -0.24891368       0.35387412
S       12.63590995       5.17273789      15.16442387      -0.67148824       1.51139425      -1.48518317
S       12.07347288       0.12497090      17.42339553      -0.15624033      -0.31337098      -1.81575396
S       12.77400905       1.36149464      15.83546732       0.01649874       1.20271592      -0.59872825
S       12.11627684       5.43969979      19.24290797      -0.71223518      -0.21356719      -0.23631475
S       13.25826764       3.77456191      19.74348423      -0.99029853      -0.75100558      -0.99260139
S        9.02931831      -1.44863866      15.02790930      -0.01795707       0.48263578      -1.22860123
Cl      -6.10148173      10.95007332      17.67199479      -0.14586044       1.17648635       0.97616214
S       -5.57409345      14.14276469      15.24039374      -0.46863053      -1.30044472      -1.38271968
S       -4.26759755      13.77534277      20.76277099       1.46236477      -2.35088961      -0.49926000
S       -6.85863052      11.21026786      22.31716270       1.24817231      -0.50760770       0.20213605
S       -1.03781366      13.02630934      20.72529512       0.65212596      -0.54135389      -0.22833435
S        2.48416094      13.43548920      19.62411837      -0.94260823       1.41327412       0.62125482
S       -6.99013205       7.97236202      10.95239493      -0.56765936      -0.38455850      -0.01160582
S       10.77629022       6.11863646      14.92620933      -1.57469007       0.39204481      -0.08024999
S        8.40944483       7.40874709      13.59603017       0.13679430      -0.68277040      -0.15985771
S       10.74769007      10.33380586      13.07223897       0.86366590       0.46972810      -0.79795329
S        7.30715344      11.28084490      14.84405499       0.28478577       0.07028049      -0.20746140
S       11.16868822      10.03584710      23.31117288       0.36119308      -0.17135208      -0.62043037
S       10.05164193       8.53585534      24.32242672      -0.87749802      -0.01856713       0.31411308
Li      -6.70513533      10.48362330      10.02961006       0.32494293      -0.03829280       0.65738820
Li      -0.62948438      12.16187033       5.73042300      -0.18061215      -0.54348560       0.00679042
Li      -6.41452201      12.95573461      11.21303606      -0.02791177       0.37050880      -0.13720512
Li      12.80381584       2.62782322      10.53670767      -0.14181014      -0.72238049      -0.16949414
Li       3.36559516      14.34680963       9.57395093      -0.08319405      -0.45867725      -0.13019495
Li       8.31130114      10.72689313      12.56089538       0.63514126      -0.23234792      -0.24213401
Li      -3.43491491       1.25757382       7.87434029       0.30904856       0.18539544       0.81627270
Li      -5.25672330       4.63859057       7.49109049      -0.45423784      -0.43378430       0.12504933
Li       1.01297351       0.07983158       8.42381127       0.39355576      -0.62607005       0.98836470
Li      -7.98022298      12.20638536       8.32882406       0.43485142       0.56041107       0.69653045
Li      10.58272107      -0.74669841      10.91988196      -0.32445346      -0.67137104      -0.09915406
Li     -11.18149750      11.90468736      11.14228602      -0.30375352      -0.13383194       0.01300137
Li      -8.93652446       8.66054353       9.40283292      -0.24410142      -0.50523891       0.45596467
Li      12.29618806       5.62986969      10.58836609      -0.07878298      -1.03716924       0.17614158
Li      -2.94307956       4.47286911      12.30849899      -0.18054814       0.25494888       0.06224930
P       -2.78636372       3.36769976       9.79267501      -1.14015931       0.08319892       0.37577473
Li      -4.75504655       5.83797746      10.04131370       0.06493924      -0.24253449      -0.47023205
P       -6.02661121       8.20103628       9.18835435       0.64725137       0.01836491      -0.66191311
